# vtk DataFile Version 3.0
CFD lid driven cavity 3D
ASCII
DATASET STRUCTURED_POINTS
DIMENSIONS 25 25 25
ORIGIN 0 0 0
SPACING 0.0416667 0.0416667 0.0416667
CELL_DATA 13824
VECTORS velocity double
0 0 0
0 0 0
0 0 0
0 0 0
0 0 0
0 0 0
0 0 0
0 0 0
0 0 0
0 0 0
0 0 0
0 0 0
0 0 0
0 0 0
0 0 0
0 0 0
0 0 0
0 0 0
0 0 0
0 0 0
0 0 0
0 0 0
0 0 0
0 0 0
0 0 0
0 0 0
0 0 0
0 0 0
0 0 0
0 0 0
0 0 0
0 0 0
0 0 0
0 0 0
0 0 0
0 0 0
0 0 0
0 0 0
0 0 0
0 0 0
0 0 0
0 0 0
0 0 0
0 0 0
0 0 0
0 0 0
0 0 0
0 0 0
0 0 0
0 0 0
0 0 0
0 0 0
0 0 0
0 0 0
0 0 0
0 0 0
0 0 0
0 0 0
0 0 0
0 0 0
0 0 0
0 0 0
0 0 0
0 0 0
0 0 0
0 0 0
0 0 0
0 0 0
0 0 0
0 0 0
0 0 0
0 0 0
0 0 0
0 0 0
0 0 0
0 0 0
0 0 0
0 0 0
0 0 0
0 0 0
0 0 0
0 0 0
0 0 0
0 0 0
0 0 0
0 0 0
0 0 0
0 0 0
0 0 0
0 0 0
0 0 0
0 0 0
0 0 0
0 0 0
0 0 0
0 0 0
0 0 0
0 0 0
0 0 0
0 0 0
0 0 0
0 0 0
0 0 0
0 0 0
0 0 0
0 0 0
0 0 0
0 0 0
0 0 0
0 0 0
0 0 0
0 0 0
0 0 0
0 0 0
0 0 0
0 0 0
0 0 0
0 0 0
0 0 0
0 0 0
0 0 0
0 0 0
0 0 0
0 0 0
0 0 0
0 0 0
0 0 0
0 0 0
0 0 0
0 0 0
0 0 0
0 0 0
0 0 0
0 0 0
0 0 0
0 0 0
0 0 0
0 0 0
0 0 0
0 0 0
0 0 0
0 0 0
0 0 0
0 0 0
0 0 0
0 0 0
0 0 0
0 0 0
0 0 0
0 0 0
0 0 0
0 0 0
0 0 0
0 0 0
0 0 0
0 0 0
0 0 0
0 0 0
0 0 0
0 0 0
0 0 0
0 0 0
0 0 0
0 0 0
0 0 0
0 0 0
0 0 0
0 0 0
0 0 0
0 0 0
0 0 0
0 0 0
0 0 0
0 0 0
0 0 0
0 0 0
0 0 0
0 0 0
0 0 0
0 0 0
0 0 0
0 0 0
0 0 0
0 0 0
0 0 0
0 0 0
0 0 0
0 0 0
0 0 0
0 0 0
0 0 0
0 0 0
0 0 0
0 0 0
0 0 0
0 0 0
0 0 0
0 0 0
0 0 0
0 0 0
0 0 0
0 0 0
0 0 0
0 0 0
0 0 0
0 0 0
0 0 0
0 0 0
0 0 0
0 0 0
0 0 0
0 0 0
0 0 0
0 0 0
0 0 0
0 0 0
0 0 0
0 0 0
0 0 0
0 0 0
0 0 0
0 0 0
0 0 0
0 0 0
0 0 0
0 0 0
0 0 0
0 0 0
0 0 0
0 0 0
0 0 0
0 0 0
0 0 0
0 0 0
0 0 0
0 0 0
0 0 0
0 0 0
0 0 0
0 0 0
0 0 0
0 0 0
0 0 0
0 0 0
0 0 0
0 0 0
0 0 0
0 0 0
0 0 0
0 0 0
0 0 0
0 0 0
0 0 0
0 0 0
0 0 0
0 0 0
0 0 0
0 0 0
0 0 0
0 0 0
0 0 0
0 0 0
0 0 0
0 0 0
0 0 0
0 0 0
0 0 0
0 0 0
0 0 0
0 0 0
0 0 0
0 0 0
0 0 0
0 0 0
0 0 0
0 0 0
0 0 0
0 0 0
0 0 0
0 0 0
0 0 0
0 0 0
0 0 0
0 0 0
0 0 0
0 0 0
0 0 0
0 0 0
0 0 0
0 0 0
0 0 0
0 0 0
0 0 0
0 0 0
0 0 0
0 0 0
0 0 0
0 0 0
0 0 0
0 0 0
0 0 0
0 0 0
0 0 0
0 0 0
0 0 0
0 0 0
0 0 0
0 0 0
0 0 0
0 0 0
0 0 0
0 0 0
0 0 0
0 0 0
0 0 0
0 0 0
0 0 0
0 0 0
0 0 0
0 0 0
0 0 0
0 0 0
0 0 0
0 0 0
0 0 0
0 0 0
0 0 0
0 0 0
0 0 0
0 0 0
0 0 0
0 0 0
0 0 0
0 0 0
0 0 0
0 0 0
0 0 0
0 0 0
0 0 0
0 0 0
0 0 0
0 0 0
0 0 0
0 0 0
0 0 0
0 0 0
0 0 0
0 0 0
0 0 0
0 0 0
0 0 0
0 0 0
0 0 0
0 0 0
0 0 0
0 0 0
0 0 0
0 0 0
0 0 0
0 0 0
0 0 0
0 0 0
0 0 0
0 0 0
0 0 0
0 0 0
0 0 0
0 0 0
0 0 0
0 0 0
0 0 0
0 0 0
0 0 0
0 0 0
0 0 0
0 0 0
0 0 0
0 0 0
0 0 0
0 0 0
0 0 0
0 0 0
0 0 0
0 0 0
0 0 0
0 0 0
0 0 0
0 0 0
0 0 0
0 0 0
0 0 0
0 0 0
0 0 0
0 0 0
0 0 0
0 0 0
0 0 0
0 0 0
0 0 0
0 0 0
0 0 0
0 0 0
0 0 0
0 0 0
0 0 0
0 0 0
0 0 0
0 0 0
0 0 0
0 0 0
0 0 0
0 0 0
0 0 0
0 0 0
0 0 0
0 0 0
0 0 0
0 0 0
0 0 0
0 0 0
0 0 0
0 0 0
0 0 0
0 0 0
0 0 0
0 0 0
0 0 0
0 0 0
0 0 0
0 0 0
0 0 0
0 0 0
0 0 0
0 0 0
0 0 0
0 0 0
0 0 0
0 0 0
0 0 0
0 0 0
0 0 0
0 0 0
0 0 0
0 0 0
0 0 0
0 0 0
0 0 0
0 0 0
0 0 0
0 0 0
0 0 0
0 0 0
0 0 0
0 0 0
0 0 0
0 0 0
0 0 0
0 0 0
0 0 0
0 0 0
0 0 0
0 0 0
0 0 0
0 0 0
0 0 0
0 0 0
0 0 0
0 0 0
0 0 0
0 0 0
0 0 0
0 0 0
0 0 0
0 0 0
0 0 0
0 0 0
0 0 0
0 0 0
0 0 0
0 0 0
0 0 0
0 0 0
0 0 0
0 0 0
0 0 0
0 0 0
0 0 0
0 0 0
0 0 0
0 0 0
0 0 0
0 0 0
0 0 0
0 0 0
0 0 0
0 0 0
0 0 0
0 0 0
0 0 0
0 0 0
0 0 0
0 0 0
0 0 0
0 0 0
0 0 0
0 0 0
0 0 0
0 0 0
0 0 0
0 0 0
0 0 0
0 0 0
0 0 0
0 0 0
0 0 0
0 0 0
0 0 0
0 0 0
0 0 0
0 0 0
0 0 0
0 0 0
0 0 0
0 0 0
0 0 0
0 0 0
0 0 0
0 0 0
0 0 0
0 0 0
0 0 0
0 0 0
0 0 0
0 0 0
0 0 0
0 0 0
0 0 0
0 0 0
0 0 0
0 0 0
0 0 0
0 0 0
0 0 0
0 0 0
0 0 0
0 0 0
0 0 0
0 0 0
0 0 0
0 0 0
0 0 0
0 0 0
0 0 0
0 0 0
0 0 0
0 0 0
0 0 0
0 0 0
0 0 0
0 0 0
0 0 0
0 0 0
0 0 0
0 0 0
0 0 0
0 0 0
0 0 0
0 0 0
0 0 0
0 0 0
0 0 0
0 0 0
0 0 0
0 0 0
0 0 0
0 0 0
0 0 0
0 0 0
0 0 0
0 0 0
0 0 0
0 0 0
0 0 0
0 0 0
0 0 0
0 0 0
0 0 0
0 0 0
0 0 0
0 0 0
0 0 0
0 0 0
0 0 0
0 0 0
0 0 0
0 0 0
0 0 0
0 0 0
0 0 0
0 0 0
0 0 0
-0.00012792 -1.11436e-05 0.000167663
-0.000628051 -0.000145009 1.98442e-05
-0.00106602 -2.47047e-05 0.000171344
-0.00189492 -0.000118448 6.91526e-05
-0.00255593 -4.38661e-05 0.000151831
-0.00342333 -9.83137e-05 8.38069e-05
-0.00410153 -4.83536e-05 0.000126265
-0.00482592 -7.77334e-05 7.69191e-05
-0.00536603 -4.04486e-05 9.64221e-05
-0.00582949 -5.69726e-05 5.40628e-05
-0.00611826 -2.35996e-05 6.30648e-05
-0.00623075 -3.73243e-05 1.86752e-05
-0.00618941 -3.73149e-07 2.84412e-05
-0.00589014 -2.11934e-05 -2.60632e-05
-0.00549387 2.74132e-05 -2.18017e-06
-0.00478483 -1.2305e-05 -7.58019e-05
-0.00410488 5.85163e-05 -1.92558e-05
-0.00310405 -1.53853e-05 -0.000123876
-0.00234442 9.21502e-05 -9.91504e-06
-0.00132783 -3.34737e-05 -0.000161769
-0.000795193 0.000135055 4.36865e-05
-0.000179068 -4.42309e-05 -0.000164892
0 0 0
0 0 0
-0.000154131 -0.000125877 0.000133225
-0.000995743 -0.00028829 -1.59708e-05
-0.0017687 -0.000173678 0.000149244
-0.00309145 -0.000195347 5.38971e-05
-0.00423051 -0.000119917 0.000137748
-0.00561306 -0.000132067 7.46738e-05
-0.00675485 -0.000100344 0.000113836
-0.00790854 -0.000121159 6.57136e-05
-0.0087984 -0.000118986 7.93481e-05
-0.0095334 -0.000150952 3.50371e-05
-0.00999256 -0.000166681 3.59786e-05
-0.0101666 -0.000208452 -1.22555e-05
-0.0100718 -0.000229514 -1.22064e-05
-0.00959167 -0.000275111 -7.02636e-05
-0.00890376 -0.000282424 -5.6195e-05
-0.00777737 -0.00031933 -0.000129541
-0.00661001 -0.000284207 -7.93924e-05
-0.00502861 -0.000299549 -0.000176268
-0.00371689 -0.000190719 -5.98326e-05
-0.00211254 -0.000192384 -0.000197977
-0.0011905 1.43059e-06 2.93413e-05
-0.000162047 -9.16407e-05 -0.000175936
0 0 0
0 0 0
-0.000150609 -0.000163004 0.000186784
-0.00123349 -0.000367034 1.50941e-05
-0.00224897 -0.000255397 0.000209986
-0.00391609 -0.000291332 9.61466e-05
-0.00536225 -0.000198273 0.000191981
-0.00708111 -0.000215395 0.000115358
-0.0085055 -0.000170848 0.000159124
-0.0099259 -0.000196653 0.000100992
-0.0110206 -0.000188842 0.000116141
-0.0119147 -0.000227985 6.3881e-05
-0.0124671 -0.000242797 6.54578e-05
-0.0126671 -0.000294064 9.68931e-06
-0.0125331 -0.000315087 1.08584e-05
-0.0119321 -0.000371263 -5.64089e-05
-0.011069 -0.000373863 -3.96096e-05
-0.00968121 -0.000419844 -0.000126225
-0.00822776 -0.000369011 -6.96379e-05
-0.0062848 -0.000390324 -0.000186146
-0.00464195 -0.000253278 -5.52784e-05
-0.00266266 -0.000260588 -0.000220694
-0.00147408 -4.29218e-05 3.89173e-05
-0.000197965 -0.000129203 -0.000197264
0 0 0
0 0 0
-0.000175418 -0.00025339 0.000169046
-0.00138429 -0.00046604 -1.23941e-05
-0.00254806 -0.000391242 0.000196521
-0.00443583 -0.000411843 7.90159e-05
-0.00608714 -0.000326481 0.000180471
-0.00802798 -0.000325968 0.000102386
-0.00964304 -0.000284674 0.000147572
-0.0112388 -0.000301245 8.78823e-05
-0.0124697 -0.000300624 0.000101945
-0.0134667 -0.00033902 4.72695e-05
-0.0140776 -0.000365839 4.61633e-05
-0.0142913 -0.000420528 -1.28011e-05
-0.0141241 -0.000455863 -1.49158e-05
-0.0134379 -0.000512575 -8.5587e-05
-0.0124471 -0.000527214 -7.10817e-05
-0.0108794 -0.000562248 -0.000160065
-0.00922262 -0.000517624 -0.00010201
-0.00703509 -0.000510803 -0.000219183
-0.00516781 -0.000378028 -7.94099e-05
-0.00294682 -0.000343863 -0.000246209
-0.00160781 -0.000142827 3.45421e-05
-0.000198459 -0.000167445 -0.000210751
0 0 0
0 0 0
-0.000172251 -0.000258177 0.000195809
-0.00147373 -0.000471918 -2.62095e-06
-0.00272678 -0.00042324 0.000225221
-0.00476614 -0.000452216 9.65542e-05
-0.0065456 -0.000375203 0.000206384
-0.00863443 -0.000375527 0.000120637
-0.010367 -0.000332571 0.000169049
-0.0120755 -0.000345465 0.000103671
-0.0133885 -0.000339214 0.000118551
-0.0144488 -0.0003717 5.91529e-05
-0.0150935 -0.000391036 5.7954e-05
-0.0153125 -0.000438509 -5.63702e-06
-0.0151235 -0.00046538 -7.74308e-06
-0.0143797 -0.000514477 -8.39656e-05
-0.0133105 -0.000521316 -6.8299e-05
-0.011625 -0.000550865 -0.000164637
-0.00984475 -0.000503714 -0.000102438
-0.00749863 -0.000497646 -0.000229699
-0.0054965 -0.000375316 -7.98847e-05
-0.00312349 -0.000348056 -0.000260494
-0.00169544 -0.000172837 4.03457e-05
-0.000216323 -0.000177214 -0.000222815
0 0 0
0 0 0
-0.000186796 -0.000284286 0.000186051
-0.0015259 -0.000482273 -2.07154e-05
-0.00282808 -0.000463032 0.000216409
-0.00495507 -0.00048941 8.28493e-05
-0.0068124 -0.000427584 0.000197739
-0.0089942 -0.000422669 0.000109413
-0.0108017 -0.000383627 0.000160294
-0.0125833 -0.000389007 9.32745e-05
-0.0139498 -0.000381192 0.000109014
-0.0150516 -0.000405082 4.80845e-05
-0.0157181 -0.000420421 4.68255e-05
-0.0159401 -0.000458138 -1.8536e-05
-0.0157351 -0.000480279 -2.092e-05
-0.0149516 -0.00051819 -9.9246e-05
-0.0138274 -0.000522082 -8.29861e-05
-0.0120614 -0.000540372 -0.000181582
-0.0101973 -0.00049748 -0.000116297
-0.00774654 -0.000483034 -0.000246167
-0.00566001 -0.000379418 -8.89016e-05
-0.00319635 -0.000346336 -0.000273867
-0.00172581 -0.000203224 4.0166e-05
-0.000218702 -0.000181071 -0.000231331
0 0 0
0 0 0
-0.000183784 -0.000248255 0.000198753
-0.00155103 -0.000421566 -1.79051e-05
-0.00287716 -0.000417761 0.000229298
-0.00506027 -0.000445443 8.92458e-05
-0.00696216 -0.000397324 0.00020925
-0.00920324 -0.000393868 0.000116606
-0.0110551 -0.000359487 0.000169772
-0.012883 -0.00036171 9.96589e-05
-0.0142813 -0.000351272 0.000116217
-0.0154091 -0.000367644 5.27668e-05
-0.0160887 -0.000375678 5.17286e-05
-0.0163121 -0.000402983 -1.6102e-05
-0.0160977 -0.000416294 -1.8258e-05
-0.0152884 -0.00044374 -9.95305e-05
-0.0141314 -0.000442327 -8.23022e-05
-0.012314 -0.000454912 -0.000184792
-0.0104004 -0.00041742 -0.000116736
-0.00788449 -0.000406428 -0.000251935
-0.00575025 -0.000324504 -8.87252e-05
-0.0032344 -0.000300826 -0.000280971
-0.00174267 -0.000190227 4.3246e-05
-0.000226919 -0.000162438 -0.000237513
0 0 0
0 0 0
-0.00019109 -0.00022322 0.000193366
-0.00156369 -0.000364083 -2.80947e-05
-0.0029004 -0.000372097 0.000223903
-0.00511113 -0.000395358 8.05528e-05
-0.00703662 -0.000360898 0.000203766
-0.0093117 -0.000356636 0.00010924
-0.0111895 -0.000328711 0.000164359
-0.0130458 -0.000327381 9.31648e-05
-0.0144639 -0.00031669 0.000110822
-0.0156083 -0.000326069 4.65685e-05
-0.0162963 -0.000329465 4.61589e-05
-0.0165209 -0.000347243 -2.25256e-05
-0.0163004 -0.000354641 -2.41312e-05
-0.0154743 -0.000372231 -0.000106511
-0.014296 -0.000368344 -8.82049e-05
-0.0124454 -0.000374416 -0.000192175
-0.0105008 -0.000343946 -0.000121725
-0.0079448 -0.000332807 -0.000259037
-0.00578394 -0.000271317 -9.13638e-05
-0.00324061 -0.000251267 -0.000286916
-0.00174237 -0.000169723 4.38989e-05
-0.000228672 -0.000138614 -0.000241795
0 0 0
0 0 0
-0.000189132 -0.000159992 0.00019886
-0.00156728 -0.000263383 -2.73445e-05
-0.00290687 -0.000272875 0.000229259
-0.00513405 -0.000291589 8.26484e-05
-0.00707136 -0.000268385 0.000208513
-0.00936676 -0.000265806 0.000111804
-0.0112588 -0.000245425 0.000168273
-0.0131323 -0.000243776 9.55459e-05
-0.0145618 -0.000234749 0.000113812
-0.0157163 -0.000240103 4.83351e-05
-0.0164095 -0.000240676 4.82124e-05
-0.0166349 -0.000251719 -2.1661e-05
-0.0164111 -0.000254997 -2.29788e-05
-0.015575 -0.000265998 -0.000106782
-0.0143847 -0.000261641 -8.77936e-05
-0.0125141 -0.000265277 -0.00019367
-0.0105524 -0.000243424 -0.000121643
-0.00797322 -0.000236447 -0.000261587
-0.00579879 -0.000194882 -9.09237e-05
-0.0032414 -0.000182491 -0.000290016
-0.00174139 -0.000127545 4.52892e-05
-0.00023216 -0.000102646 -0.000244686
0 0 0
0 0 0
-0.000192083 -0.000106623 0.00019644
-0.00156862 -0.00016987 -3.17795e-05
-0.0029086 -0.000178557 0.000226735
-0.00514203 -0.000189996 7.86021e-05
-0.0070844 -0.000176937 0.000205943
-0.00938984 -0.000174861 0.000108321
-0.0112891 -0.000162276 0.000165796
-0.013172 -0.00016028 9.25598e-05
-0.0146077 -0.000153976 0.00011148
-0.0157681 -0.000155995 4.56666e-05
-0.0164643 -0.000155272 4.60042e-05
-0.0166903 -0.000160625 -2.42089e-05
-0.0164647 -0.000161486 -2.50896e-05
-0.0156228 -0.000166773 -0.000109363
-0.0144257 -0.000163181 -8.97065e-05
-0.0125438 -0.000164173 -0.00019629
-0.0105727 -0.000150606 -0.000123059
-0.00798097 -0.000145643 -0.000264084
-0.00580014 -0.000121221 -9.14426e-05
-0.00323663 -0.000113308 -0.000292156
-0.00173761 -8.13495e-05 4.57578e-05
-0.000233012 -6.43488e-05 -0.000246371
0 0 0
0 0 0
-0.00019142 -3.10538e-05 0.000197959
-0.00156835 -5.2155e-05 -3.16266e-05
-0.00290785 -5.46767e-05 0.000228187
-0.00514436 -5.8815e-05 7.90799e-05
-0.00708863 -5.44889e-05 0.000207228
-0.00939868 -5.40974e-05 0.000108944
-0.0113011 -5.00209e-05 0.000166861
-0.0131881 -4.96126e-05 9.31617e-05
-0.0146267 -4.7629e-05 0.000112302
-0.0157897 -4.85042e-05 4.61237e-05
-0.0164873 -4.83492e-05 4.6582e-05
-0.0167135 -5.03005e-05 -2.39844e-05
-0.0164872 -5.06583e-05 -2.47435e-05
-0.0156427 -5.26177e-05 -0.000109441
-0.0144428 -5.15472e-05 -8.95417e-05
-0.0125559 -5.22026e-05 -0.000196699
-0.0105809 -4.7951e-05 -0.000122961
-0.0079837 -4.6803e-05 -0.000264783
-0.00580039 -3.90956e-05 -9.12452e-05
-0.00323448 -3.70092e-05 -0.000293013
-0.00173612 -2.67562e-05 4.6148e-05
-0.000233967 -2.12368e-05 -0.000247213
0 0 0
0 0 0
-0.00019142 3.10538e-05 0.000197959
-0.00156835 5.2155e-05 -3.16266e-05
-0.00290785 5.46767e-05 0.000228187
-0.00514436 5.8815e-05 7.90799e-05
-0.00708863 5.44889e-05 0.000207228
-0.00939868 5.40974e-05 0.000108944
-0.0113011 5.00209e-05 0.000166861
-0.0131881 4.96126e-05 9.31617e-05
-0.0146267 4.7629e-05 0.000112302
-0.0157897 4.85042e-05 4.61237e-05
-0.0164873 4.83492e-05 4.6582e-05
-0.0167135 5.03005e-05 -2.39844e-05
-0.0164872 5.06583e-05 -2.47435e-05
-0.0156427 5.26177e-05 -0.000109441
-0.0144428 5.15472e-05 -8.95417e-05
-0.0125559 5.22026e-05 -0.000196699
-0.0105809 4.7951e-05 -0.000122961
-0.0079837 4.6803e-05 -0.000264783
-0.00580039 3.90956e-05 -9.12452e-05
-0.00323448 3.70092e-05 -0.000293013
-0.00173612 2.67562e-05 4.6148e-05
-0.000233967 2.12368e-05 -0.000247213
0 0 0
0 0 0
-0.000192083 0.000106623 0.00019644
-0.00156862 0.00016987 -3.17795e-05
-0.0029086 0.000178557 0.000226735
-0.00514203 0.000189996 7.86021e-05
-0.0070844 0.000176937 0.000205943
-0.00938984 0.000174861 0.000108321
-0.0112891 0.000162276 0.000165796
-0.013172 0.00016028 9.25598e-05
-0.0146077 0.000153976 0.00011148
-0.0157681 0.000155995 4.56666e-05
-0.0164643 0.000155272 4.60042e-05
-0.0166903 0.000160625 -2.42089e-05
-0.0164647 0.000161486 -2.50896e-05
-0.0156228 0.000166773 -0.000109363
-0.0144257 0.000163181 -8.97065e-05
-0.0125438 0.000164173 -0.00019629
-0.0105727 0.000150606 -0.000123059
-0.00798097 0.000145643 -0.000264084
-0.00580014 0.000121221 -9.14426e-05
-0.00323663 0.000113308 -0.000292156
-0.00173761 8.13495e-05 4.57578e-05
-0.000233012 6.43488e-05 -0.000246371
0 0 0
0 0 0
-0.000189132 0.000159992 0.00019886
-0.00156728 0.000263383 -2.73445e-05
-0.00290687 0.000272875 0.000229259
-0.00513405 0.000291589 8.26484e-05
-0.00707136 0.000268385 0.000208513
-0.00936676 0.000265806 0.000111804
-0.0112588 0.000245425 0.000168273
-0.0131323 0.000243776 9.55459e-05
-0.0145618 0.000234749 0.000113812
-0.0157163 0.000240103 4.83351e-05
-0.0164095 0.000240676 4.82124e-05
-0.0166349 0.000251719 -2.1661e-05
-0.0164111 0.000254997 -2.29788e-05
-0.015575 0.000265998 -0.000106782
-0.0143847 0.000261641 -8.77936e-05
-0.0125141 0.000265277 -0.00019367
-0.0105524 0.000243424 -0.000121643
-0.00797322 0.000236447 -0.000261587
-0.00579879 0.000194882 -9.09237e-05
-0.0032414 0.000182491 -0.000290016
-0.00174139 0.000127545 4.52892e-05
-0.00023216 0.000102646 -0.000244686
0 0 0
0 0 0
-0.00019109 0.00022322 0.000193366
-0.00156369 0.000364083 -2.80947e-05
-0.0029004 0.000372097 0.000223903
-0.00511113 0.000395358 8.05528e-05
-0.00703662 0.000360898 0.000203766
-0.0093117 0.000356636 0.00010924
-0.0111895 0.000328711 0.000164359
-0.0130458 0.000327381 9.31648e-05
-0.0144639 0.00031669 0.000110822
-0.0156083 0.000326069 4.65685e-05
-0.0162963 0.000329465 4.61589e-05
-0.0165209 0.000347243 -2.25256e-05
-0.0163004 0.000354641 -2.41312e-05
-0.0154743 0.000372231 -0.000106511
-0.014296 0.000368344 -8.82049e-05
-0.0124454 0.000374416 -0.000192175
-0.0105008 0.000343946 -0.000121725
-0.0079448 0.000332807 -0.000259037
-0.00578394 0.000271317 -9.13638e-05
-0.00324061 0.000251267 -0.000286916
-0.00174237 0.000169723 4.38989e-05
-0.000228672 0.000138614 -0.000241795
0 0 0
0 0 0
-0.000183784 0.000248255 0.000198753
-0.00155103 0.000421566 -1.79051e-05
-0.00287716 0.000417761 0.000229298
-0.00506027 0.000445443 8.92458e-05
-0.00696216 0.000397324 0.00020925
-0.00920324 0.000393868 0.000116606
-0.0110551 0.000359487 0.000169772
-0.012883 0.00036171 9.96589e-05
-0.0142813 0.000351272 0.000116217
-0.0154091 0.000367644 5.27668e-05
-0.0160887 0.000375678 5.17286e-05
-0.0163121 0.000402983 -1.6102e-05
-0.0160977 0.000416294 -1.8258e-05
-0.0152884 0.00044374 -9.95305e-05
-0.0141314 0.000442327 -8.23022e-05
-0.012314 0.000454912 -0.000184792
-0.0104004 0.00041742 -0.000116736
-0.00788449 0.000406428 -0.000251935
-0.00575025 0.000324504 -8.87252e-05
-0.0032344 0.000300826 -0.000280971
-0.00174267 0.000190227 4.3246e-05
-0.000226919 0.000162438 -0.000237513
0 0 0
0 0 0
-0.000186796 0.000284286 0.000186051
-0.0015259 0.000482273 -2.07154e-05
-0.00282808 0.000463032 0.000216409
-0.00495507 0.00048941 8.28493e-05
-0.0068124 0.000427584 0.000197739
-0.0089942 0.000422669 0.000109413
-0.0108017 0.000383627 0.000160294
-0.0125833 0.000389007 9.32745e-05
-0.0139498 0.000381192 0.000109014
-0.0150516 0.000405082 4.80845e-05
-0.0157181 0.000420421 4.68255e-05
-0.0159401 0.000458138 -1.8536e-05
-0.0157351 0.000480279 -2.092e-05
-0.0149516 0.00051819 -9.9246e-05
-0.0138274 0.000522082 -8.29861e-05
-0.0120614 0.000540372 -0.000181582
-0.0101973 0.00049748 -0.000116297
-0.00774654 0.000483034 -0.000246167
-0.00566001 0.000379418 -8.89016e-05
-0.00319635 0.000346336 -0.000273867
-0.00172581 0.000203224 4.0166e-05
-0.000218702 0.000181071 -0.000231331
0 0 0
0 0 0
-0.000172251 0.000258177 0.000195809
-0.00147373 0.000471918 -2.62095e-06
-0.00272678 0.00042324 0.000225221
-0.00476614 0.000452216 9.65542e-05
-0.0065456 0.000375203 0.000206384
-0.00863443 0.000375527 0.000120637
-0.010367 0.000332571 0.000169049
-0.0120755 0.000345465 0.000103671
-0.0133885 0.000339214 0.000118551
-0.0144488 0.0003717 5.91529e-05
-0.0150935 0.000391036 5.7954e-05
-0.0153125 0.000438509 -5.63702e-06
-0.0151235 0.00046538 -7.74308e-06
-0.0143797 0.000514477 -8.39656e-05
-0.0133105 0.000521316 -6.8299e-05
-0.011625 0.000550865 -0.000164637
-0.00984475 0.000503714 -0.000102438
-0.00749863 0.000497646 -0.000229699
-0.0054965 0.000375316 -7.98847e-05
-0.00312349 0.000348056 -0.000260494
-0.00169544 0.000172837 4.03457e-05
-0.000216323 0.000177214 -0.000222815
0 0 0
0 0 0
-0.000175418 0.00025339 0.000169046
-0.00138429 0.00046604 -1.23941e-05
-0.00254806 0.000391242 0.000196521
-0.00443583 0.000411843 7.90159e-05
-0.00608714 0.000326481 0.000180471
-0.00802798 0.000325968 0.000102386
-0.00964304 0.000284674 0.000147572
-0.0112388 0.000301245 8.78823e-05
-0.0124697 0.000300624 0.000101945
-0.0134667 0.00033902 4.72695e-05
-0.0140776 0.000365839 4.61633e-05
-0.0142913 0.000420528 -1.28011e-05
-0.0141241 0.000455863 -1.49158e-05
-0.0134379 0.000512575 -8.5587e-05
-0.0124471 0.000527214 -7.10817e-05
-0.0108794 0.000562248 -0.000160065
-0.00922262 0.000517624 -0.00010201
-0.00703509 0.000510803 -0.000219183
-0.00516781 0.000378028 -7.94099e-05
-0.00294682 0.000343863 -0.000246209
-0.00160781 0.000142827 3.45421e-05
-0.000198459 0.000167445 -0.000210751
0 0 0
0 0 0
-0.000150609 0.000163004 0.000186784
-0.00123349 0.000367034 1.50941e-05
-0.00224897 0.000255397 0.000209986
-0.00391609 0.000291332 9.61466e-05
-0.00536225 0.000198273 0.000191981
-0.00708111 0.000215395 0.000115358
-0.0085055 0.000170848 0.000159124
-0.0099259 0.000196653 0.000100992
-0.0110206 0.000188842 0.000116141
-0.0119147 0.000227985 6.3881e-05
-0.0124671 0.000242797 6.54578e-05
-0.0126671 0.000294064 9.68931e-06
-0.0125331 0.000315087 1.08584e-05
-0.0119321 0.000371263 -5.64089e-05
-0.011069 0.000373863 -3.96096e-05
-0.00968121 0.000419844 -0.000126225
-0.00822776 0.000369011 -6.96379e-05
-0.0062848 0.000390324 -0.000186146
-0.00464195 0.000253278 -5.52784e-05
-0.00266266 0.000260588 -0.000220694
-0.00147408 4.29218e-05 3.89173e-05
-0.000197965 0.000129203 -0.000197264
0 0 0
0 0 0
-0.000154131 0.000125877 0.000133225
-0.000995743 0.00028829 -1.59708e-05
-0.0017687 0.000173678 0.000149244
-0.00309145 0.000195347 5.38971e-05
-0.00423051 0.000119917 0.000137748
-0.00561306 0.000132067 7.46738e-05
-0.00675485 0.000100344 0.000113836
-0.00790854 0.000121159 6.57136e-05
-0.0087984 0.000118986 7.93481e-05
-0.0095334 0.000150952 3.50371e-05
-0.00999256 0.000166681 3.59786e-05
-0.0101666 0.000208452 -1.22555e-05
-0.0100718 0.000229514 -1.22064e-05
-0.00959167 0.000275111 -7.02636e-05
-0.00890376 0.000282424 -5.6195e-05
-0.00777737 0.00031933 -0.000129541
-0.00661001 0.000284207 -7.93924e-05
-0.00502861 0.000299549 -0.000176268
-0.00371689 0.000190719 -5.98326e-05
-0.00211254 0.000192384 -0.000197977
-0.0011905 -1.43059e-06 2.93413e-05
-0.000162047 9.16407e-05 -0.000175936
0 0 0
0 0 0
-0.00012792 1.11436e-05 0.000167663
-0.000628051 0.000145009 1.98442e-05
-0.00106602 2.47047e-05 0.000171344
-0.00189492 0.000118448 6.91526e-05
-0.00255593 4.38661e-05 0.000151831
-0.00342333 9.83137e-05 8.38069e-05
-0.00410153 4.83536e-05 0.000126265
-0.00482592 7.77334e-05 7.69191e-05
-0.00536603 4.04486e-05 9.64221e-05
-0.00582949 5.69726e-05 5.40628e-05
-0.00611826 2.35996e-05 6.30648e-05
-0.00623075 3.73243e-05 1.86752e-05
-0.00618941 3.73149e-07 2.84412e-05
-0.00589014 2.11934e-05 -2.60632e-05
-0.00549387 -2.74132e-05 -2.18017e-06
-0.00478483 1.2305e-05 -7.58019e-05
-0.00410488 -5.85163e-05 -1.92558e-05
-0.00310405 1.53853e-05 -0.000123876
-0.00234442 -9.21502e-05 -9.91504e-06
-0.00132783 3.34737e-05 -0.000161769
-0.000795193 -0.000135055 4.36865e-05
-0.000179068 4.42309e-05 -0.000164892
0 0 0
0 0 0
0 0 0
0 0 0
0 0 0
0 0 0
0 0 0
0 0 0
0 0 0
0 0 0
0 0 0
0 0 0
0 0 0
0 0 0
0 0 0
0 0 0
0 0 0
0 0 0
0 0 0
0 0 0
0 0 0
0 0 0
0 0 0
0 0 0
0 0 0
0 0 0
0 0 0
0 0 0
0 0 0
0 0 0
0 0 0
0 0 0
0 0 0
0 0 0
0 0 0
0 0 0
0 0 0
0 0 0
0 0 0
0 0 0
0 0 0
0 0 0
0 0 0
0 0 0
0 0 0
0 0 0
0 0 0
0 0 0
0 0 0
0 0 0
-2.31984e-05 9.89163e-05 0.00080533
-0.000939167 -4.58211e-05 0.00103022
-0.00173008 0.000109839 0.0014382
-0.00312557 1.88806e-05 0.00148412
-0.00430632 0.000100506 0.00159407
-0.00574767 4.16465e-05 0.00150101
-0.00693118 8.11383e-05 0.00143517
-0.0081313 3.65216e-05 0.00125187
-0.00905768 5.16171e-05 0.00107762
-0.00982758 1.09492e-05 0.000824541
-0.0103149 1.44991e-05 0.00057471
-0.010509 -2.88449e-05 0.000261956
-0.0104286 -2.49577e-05 -3.26531e-05
-0.00994564 -7.61193e-05 -0.000382061
-0.00925029 -5.76885e-05 -0.000664561
-0.00808834 -0.000121894 -0.000997551
-0.00688716 -6.90007e-05 -0.00116651
-0.0052329 -0.000155206 -0.00139808
-0.00386878 -4.20917e-05 -0.00131113
-0.00216483 -0.000170048 -0.00135605
-0.00120523 4.06106e-05 -0.000878467
-8.384e-05 -0.000156499 -0.000768336
0 0 0
0 0 0
-5.46672e-05 -0.000126087 0.00113995
-0.00158911 -0.000348424 0.0015932
-0.00301316 -0.000177164 0.00224304
-0.00529997 -0.000182701 0.00239089
-0.00735364 -7.51779e-05 0.00254939
-0.00971634 -8.44411e-05 0.0024253
-0.0117333 -5.40656e-05 0.00228898
-0.0136966 -9.46734e-05 0.00199045
-0.0152463 -0.000119173 0.00167313
-0.0164969 -0.000189636 0.00124752
-0.0172862 -0.000249119 0.000804137
-0.0175888 -0.000341321 0.000278032
-0.0174124 -0.000413115 -0.000240297
-0.0166096 -0.000510432 -0.000818366
-0.0153944 -0.000559668 -0.00131661
-0.0134937 -0.000631591 -0.00184382
-0.0114192 -0.000605132 -0.00215174
-0.00873268 -0.000618616 -0.00246654
-0.00636512 -0.000460517 -0.00234706
-0.00360937 -0.000422233 -0.0022893
-0.0019152 -0.000118185 -0.00152883
-6.38848e-05 -0.000212515 -0.00117562
0 0 0
0 0 0
-3.41643e-05 -0.00019654 0.00140953
-0.00202707 -0.000488908 0.00202097
-0.00391834 -0.000330304 0.00285138
-0.00684227 -0.000350655 0.00306676
-0.00948761 -0.00021996 0.00326044
-0.0124733 -0.000229842 0.0031035
-0.0150308 -0.000183411 0.00291009
-0.017489 -0.000228627 0.00251648
-0.0194279 -0.000249464 0.00208827
-0.0209745 -0.000331273 0.0015282
-0.021939 -0.000395757 0.000939932
-0.0222913 -0.000504241 0.000253626
-0.0220376 -0.000583036 -0.000426838
-0.021012 -0.000696981 -0.00117257
-0.0194596 -0.000745204 -0.00182218
-0.0170752 -0.000826658 -0.00249011
-0.0144486 -0.000779898 -0.00288923
-0.0110916 -0.000790988 -0.00326436
-0.00808186 -0.000590633 -0.00310813
-0.00462802 -0.000544444 -0.00297675
-0.00242163 -0.000202616 -0.00199763
-8.40817e-05 -0.0002763 -0.00146844
0 0 0
0 0 0
-5.68371e-05 -0.000361351 0.00149114
-0.00231403 -0.000686742 0.00218106
-0.00450272 -0.000587165 0.00312696
-0.00784606 -0.000596598 0.00339271
-0.0108904 -0.000472688 0.00361335
-0.0142929 -0.000459309 0.0034418
-0.0172151 -0.000409198 0.00321317
-0.020001 -0.000438144 0.00276163
-0.0221977 -0.000459334 0.00226129
-0.0239358 -0.000534387 0.00161546
-0.0250099 -0.000605092 0.0009315
-0.0253872 -0.000711659 0.00014174
-0.0250697 -0.000799003 -0.000646084
-0.0238856 -0.000907113 -0.00149854
-0.0220915 -0.000959693 -0.00224613
-0.019373 -0.00102089 -0.00299674
-0.0163596 -0.000970134 -0.00344741
-0.0125474 -0.000941256 -0.00384131
-0.00910313 -0.000736437 -0.00364262
-0.00519441 -0.000638691 -0.00343405
-0.00268287 -0.000315893 -0.00229195
-7.61733e-05 -0.000310314 -0.00163793
0 0 0
0 0 0
-4.66543e-05 -0.000387218 0.001555
-0.0024874 -0.000720971 0.00227644
-0.00486033 -0.000667443 0.00330023
-0.0084888 -0.000693352 0.00359153
-0.0117891 -0.00058328 0.00383304
-0.01547 -0.000570076 0.00364763
-0.0186239 -0.000515357 0.00339688
-0.0216228 -0.000535247 0.00290378
-0.02398 -0.000544303 0.0023558
-0.0258378 -0.000605875 0.00165073
-0.0269769 -0.000660825 0.000903595
-0.0273644 -0.000751318 4.35479e-05
-0.0270023 -0.000820929 -0.000814219
-0.0257097 -0.000911871 -0.00173853
-0.0237599 -0.000947654 -0.0025477
-0.0208195 -0.000995419 -0.00335356
-0.017561 -0.000937225 -0.0038314
-0.0134498 -0.000907023 -0.00423791
-0.00973495 -0.000717689 -0.00400009
-0.00553579 -0.000632705 -0.00374301
-0.00284226 -0.000351577 -0.0024822
-8.19938e-05 -0.00031812 -0.00175664
0 0 0
0 0 0
-5.93231e-05 -0.000433583 0.00154719
-0.0025899 -0.000749849 0.00227241
-0.00506715 -0.000742153 0.0033392
-0.00886494 -0.000771597 0.003646
-0.0123222 -0.000683491 0.00390284
-0.0161784 -0.000664804 0.00371257
-0.0194794 -0.000611747 0.00345219
-0.022615 -0.000618061 0.00293797
-0.0250751 -0.000617899 0.00236469
-0.0270101 -0.000661145 0.00162738
-0.0281901 -0.000701348 0.000844839
-0.0285828 -0.000770282 -5.47791e-05
-0.0281892 -0.000823205 -0.00095263
-0.0268225 -0.000890832 -0.00191746
-0.0247666 -0.000913332 -0.00276106
-0.0216771 -0.000941101 -0.00359583
-0.0182555 -0.000883677 -0.00408483
-0.0139494 -0.000844465 -0.00449166
-0.0100657 -0.000682814 -0.0042219
-0.00569283 -0.000599745 -0.00392776
-0.00290588 -0.000370402 -0.00258877
-7.72094e-05 -0.000306492 -0.00182001
0 0 0
0 0 0
-5.40621e-05 -0.000386963 0.00154468
-0.00264202 -0.000666015 0.00226135
-0.00517359 -0.00068201 0.00335367
-0.00907649 -0.000717047 0.00366584
-0.0126255 -0.000649752 0.00393366
-0.0165919 -0.000634584 0.00373928
-0.0199816 -0.000586694 0.00347468
-0.0232032 -0.00058672 0.00294739
-0.025726 -0.000578937 0.00236001
-0.0277091 -0.000607325 0.00160318
-0.028914 -0.000631571 0.000800222
-0.0293089 -0.000680252 -0.000123332
-0.0288956 -0.000714349 -0.00104434
-0.0274809 -0.00076177 -0.00203373
-0.0253596 -0.00077137 -0.00289646
-0.0221746 -0.000788255 -0.00374878
-0.018654 -0.000736505 -0.00424162
-0.0142264 -0.000704588 -0.00464902
-0.0102446 -0.000576878 -0.00435586
-0.00577061 -0.000514667 -0.00404139
-0.00293637 -0.000337676 -0.00265176
-7.8186e-05 -0.000270872 -0.00186213
0 0 0
0 0 0
-6.07466e-05 -0.000346216 0.00152099
-0.00266843 -0.000575039 0.00222523
-0.0052253 -0.000605508 0.00332918
-0.00918219 -0.000637392 0.00364391
-0.0127809 -0.00058972 0.00391949
-0.0168106 -0.000575767 0.00372479
-0.0202521 -0.000535725 0.00346067
-0.0235259 -0.000530101 0.00292884
-0.0260869 -0.000518401 0.00233658
-0.0281002 -0.000533689 0.00157164
-0.0293208 -0.000546045 0.000759983
-0.0297175 -0.000576666 -0.000174488
-0.0292919 -0.000596399 -0.00110615
-0.0278466 -0.000625753 -0.00210715
-0.0256839 -0.000627035 -0.00297839
-0.0224386 -0.000633614 -0.00383845
-0.0188572 -0.000590438 -0.00433085
-0.0143559 -0.00056246 -0.00473641
-0.0103192 -0.000466972 -0.00442726
-0.00579142 -0.000418488 -0.00410017
-0.002939 -0.000288747 -0.00268085
-7.57785e-05 -0.000224191 -0.00188122
0 0 0
0 0 0
-5.83448e-05 -0.000251919 0.00150843
-0.00267794 -0.00042032 0.0022011
-0.00524419 -0.000449228 0.00331103
-0.00923135 -0.000475819 0.00362546
-0.0128557 -0.000444304 0.00390615
-0.0169222 -0.000434873 0.00371102
-0.0203926 -0.000405293 0.00344813
-0.0236976 -0.000399529 0.00291401
-0.0262807 -0.000388384 0.00231991
-0.0283123 -0.000396346 0.00155082
-0.0295424 -0.000401518 0.000735091
-0.0299403 -0.000419861 -0.000205122
-0.0295077 -0.000430011 -0.00114198
-0.0280442 -0.000447587 -0.00214923
-0.0258576 -0.000445313 -0.0030244
-0.0225763 -0.000448176 -0.00388877
-0.0189605 -0.000416798 -0.00437988
-0.0144168 -0.000398124 -0.00478485
-0.0103513 -0.000333658 -0.00446564
-0.00579563 -0.00030244 -0.00413291
-0.00293696 -0.000215067 -0.00269634
-7.57244e-05 -0.000165151 -0.00189355
0 0 0
0 0 0
-6.12168e-05 -0.000165405 0.0014938
-0.00268156 -0.000268811 0.00217804
-0.00525042 -0.000290656 0.00328987
-0.00925003 -0.000307404 0.00360402
-0.0128859 -0.000289773 0.00388792
-0.0169708 -0.000283431 0.00369341
-0.020456 -0.000264937 0.00343239
-0.0237777 -0.000259791 0.00289837
-0.026373 -0.000251392 0.00230474
-0.0284149 -0.000254023 0.00153488
-0.0296505 -0.000255043 0.000718418
-0.0300493 -0.000263715 -0.000223495
-0.0296131 -0.000267645 -0.00116183
-0.0281392 -0.000275867 -0.00217125
-0.0259394 -0.000272669 -0.0030474
-0.0226381 -0.000272526 -0.00391317
-0.0190038 -0.000252951 -0.00440275
-0.0144374 -0.000240952 -0.00480691
-0.0103581 -0.000203341 -0.00448191
-0.00579 -0.00018461 -0.00414636
-0.00293115 -0.000134128 -0.0027011
-7.48118e-05 -0.00010161 -0.00189766
0 0 0
0 0 0
-6.05341e-05 -5.0099e-05 0.00148851