# vtk DataFile Version 3.0
CFD lid driven cavity 3D
ASCII
DATASET STRUCTURED_POINTS
DIMENSIONS 25 25 25
ORIGIN 0 0 0
SPACING 0.0416667 0.0416667 0.0416667
CELL_DATA 13824
VECTORS velocity double
0 0 0
0 0 0
0 0 0
0 0 0
0 0 0
0 0 0
0 0 0
0 0 0
0 0 0
0 0 0
0 0 0
0 0 0
0 0 0
0 0 0
0 0 0
0 0 0
0 0 0
0 0 0
0 0 0
0 0 0
0 0 0
0 0 0
0 0 0
0 0 0
0 0 0
0 0 0
0 0 0
0 0 0
0 0 0
0 0 0
0 0 0
0 0 0
0 0 0
0 0 0
0 0 0
0 0 0
0 0 0
0 0 0
0 0 0
0 0 0
0 0 0
0 0 0
0 0 0
0 0 0
0 0 0
0 0 0
0 0 0
0 0 0
0 0 0
0 0 0
0 0 0
0 0 0
0 0 0
0 0 0
0 0 0
0 0 0
0 0 0
0 0 0
0 0 0
0 0 0
0 0 0
0 0 0
0 0 0
0 0 0
0 0 0
0 0 0
0 0 0
0 0 0
0 0 0
0 0 0
0 0 0
0 0 0
0 0 0
0 0 0
0 0 0
0 0 0
0 0 0
0 0 0
0 0 0
0 0 0
0 0 0
0 0 0
0 0 0
0 0 0
0 0 0
0 0 0
0 0 0
0 0 0
0 0 0
0 0 0
0 0 0
0 0 0
0 0 0
0 0 0
0 0 0
0 0 0
0 0 0
0 0 0
0 0 0
0 0 0
0 0 0
0 0 0
0 0 0
0 0 0
0 0 0
0 0 0
0 0 0
0 0 0
0 0 0
0 0 0
0 0 0
0 0 0
0 0 0
0 0 0
0 0 0
0 0 0
0 0 0
0 0 0
0 0 0
0 0 0
0 0 0
0 0 0
0 0 0
0 0 0
0 0 0
0 0 0
0 0 0
0 0 0
0 0 0
0 0 0
0 0 0
0 0 0
0 0 0
0 0 0
0 0 0
0 0 0
0 0 0
0 0 0
0 0 0
0 0 0
0 0 0
0 0 0
0 0 0
0 0 0
0 0 0
0 0 0
0 0 0
0 0 0
0 0 0
0 0 0
0 0 0
0 0 0
0 0 0
0 0 0
0 0 0
0 0 0
0 0 0
0 0 0
0 0 0
0 0 0
0 0 0
0 0 0
0 0 0
0 0 0
0 0 0
0 0 0
0 0 0
0 0 0
0 0 0
0 0 0
0 0 0
0 0 0
0 0 0
0 0 0
0 0 0
0 0 0
0 0 0
0 0 0
0 0 0
0 0 0
0 0 0
0 0 0
0 0 0
0 0 0
0 0 0
0 0 0
0 0 0
0 0 0
0 0 0
0 0 0
0 0 0
0 0 0
0 0 0
0 0 0
0 0 0
0 0 0
0 0 0
0 0 0
0 0 0
0 0 0
0 0 0
0 0 0
0 0 0
0 0 0
0 0 0
0 0 0
0 0 0
0 0 0
0 0 0
0 0 0
0 0 0
0 0 0
0 0 0
0 0 0
0 0 0
0 0 0
0 0 0
0 0 0
0 0 0
0 0 0
0 0 0
0 0 0
0 0 0
0 0 0
0 0 0
0 0 0
0 0 0
0 0 0
0 0 0
0 0 0
0 0 0
0 0 0
0 0 0
0 0 0
0 0 0
0 0 0
0 0 0
0 0 0
0 0 0
0 0 0
0 0 0
0 0 0
0 0 0
0 0 0
0 0 0
0 0 0
0 0 0
0 0 0
0 0 0
0 0 0
0 0 0
0 0 0
0 0 0
0 0 0
0 0 0
0 0 0
0 0 0
0 0 0
0 0 0
0 0 0
0 0 0
0 0 0
0 0 0
0 0 0
0 0 0
0 0 0
0 0 0
0 0 0
0 0 0
0 0 0
0 0 0
0 0 0
0 0 0
0 0 0
0 0 0
0 0 0
0 0 0
0 0 0
0 0 0
0 0 0
0 0 0
0 0 0
0 0 0
0 0 0
0 0 0
0 0 0
0 0 0
0 0 0
0 0 0
0 0 0
0 0 0
0 0 0
0 0 0
0 0 0
0 0 0
0 0 0
0 0 0
0 0 0
0 0 0
0 0 0
0 0 0
0 0 0
0 0 0
0 0 0
0 0 0
0 0 0
0 0 0
0 0 0
0 0 0
0 0 0
0 0 0
0 0 0
0 0 0
0 0 0
0 0 0
0 0 0
0 0 0
0 0 0
0 0 0
0 0 0
0 0 0
0 0 0
0 0 0
0 0 0
0 0 0
0 0 0
0 0 0
0 0 0
0 0 0
0 0 0
0 0 0
0 0 0
0 0 0
0 0 0
0 0 0
0 0 0
0 0 0
0 0 0
0 0 0
0 0 0
0 0 0
0 0 0
0 0 0
0 0 0
0 0 0
0 0 0
0 0 0
0 0 0
0 0 0
0 0 0
0 0 0
0 0 0
0 0 0
0 0 0
0 0 0
0 0 0
0 0 0
0 0 0
0 0 0
0 0 0
0 0 0
0 0 0
0 0 0
0 0 0
0 0 0
0 0 0
0 0 0
0 0 0
0 0 0
0 0 0
0 0 0
0 0 0
0 0 0
0 0 0
0 0 0
0 0 0
0 0 0
0 0 0
0 0 0
0 0 0
0 0 0
0 0 0
0 0 0
0 0 0
0 0 0
0 0 0
0 0 0
0 0 0
0 0 0
0 0 0
0 0 0
0 0 0
0 0 0
0 0 0
0 0 0
0 0 0
0 0 0
0 0 0
0 0 0
0 0 0
0 0 0
0 0 0
0 0 0
0 0 0
0 0 0
0 0 0
0 0 0
0 0 0
0 0 0
0 0 0
0 0 0
0 0 0
0 0 0
0 0 0
0 0 0
0 0 0
0 0 0
0 0 0
0 0 0
0 0 0
0 0 0
0 0 0
0 0 0
0 0 0
0 0 0
0 0 0
0 0 0
0 0 0
0 0 0
0 0 0
0 0 0
0 0 0
0 0 0
0 0 0
0 0 0
0 0 0
0 0 0
0 0 0
0 0 0
0 0 0
0 0 0
0 0 0
0 0 0
0 0 0
0 0 0
0 0 0
0 0 0
0 0 0
0 0 0
0 0 0
0 0 0
0 0 0
0 0 0
0 0 0
0 0 0
0 0 0
0 0 0
0 0 0
0 0 0
0 0 0
0 0 0
0 0 0
0 0 0
0 0 0
0 0 0
0 0 0
0 0 0
0 0 0
0 0 0
0 0 0
0 0 0
0 0 0
0 0 0
0 0 0
0 0 0
0 0 0
0 0 0
0 0 0
0 0 0
0 0 0
0 0 0
0 0 0
0 0 0
0 0 0
0 0 0
0 0 0
0 0 0
0 0 0
0 0 0
0 0 0
0 0 0
0 0 0
0 0 0
0 0 0
0 0 0
0 0 0
0 0 0
0 0 0
0 0 0
0 0 0
0 0 0
0 0 0
0 0 0
0 0 0
0 0 0
0 0 0
0 0 0
0 0 0
0 0 0
0 0 0
0 0 0
0 0 0
0 0 0
0 0 0
0 0 0
0 0 0
0 0 0
0 0 0
0 0 0
0 0 0
0 0 0
0 0 0
0 0 0
0 0 0
0 0 0
0 0 0
0 0 0
0 0 0
0 0 0
0 0 0
0 0 0
0 0 0
0 0 0
0 0 0
0 0 0
0 0 0
0 0 0
0 0 0
0 0 0
0 0 0
0 0 0
0 0 0
0 0 0
0 0 0
0 0 0
0 0 0
0 0 0
0 0 0
0 0 0
0 0 0
0 0 0
0 0 0
0 0 0
0 0 0
0 0 0
0 0 0
0 0 0
0 0 0
0 0 0
0 0 0
0 0 0
0 0 0
0 0 0
0 0 0
0 0 0
0 0 0
0 0 0
0 0 0
0 0 0
0 0 0
0 0 0
0 0 0
0 0 0
0 0 0
0 0 0
0 0 0
0 0 0
0 0 0
0 0 0
0 0 0
0 0 0
0 0 0
0 0 0
0 0 0
0 0 0
0 0 0
0 0 0
0 0 0
0 0 0
0 0 0
0 0 0
0 0 0
0 0 0
0 0 0
0 0 0
0 0 0
0 0 0
0 0 0
0 0 0
0 0 0
0 0 0
-0.000144832 -6.84351e-07 0.000169651
-0.0007611 -0.000137639 1.80654e-05
-0.00126882 -1.50574e-05 0.00016808
-0.00216078 -0.000106691 6.41626e-05
-0.00283871 -3.26343e-05 0.000142193
-0.00369507 -8.39447e-05 7.34697e-05
-0.0043356 -3.49004e-05 0.000111702
-0.0050049 -6.16763e-05 6.20612e-05
-0.00548088 -2.5558e-05 7.81739e-05
-0.00588066 -3.99998e-05 3.62578e-05
-0.00611055 -8.40764e-06 4.2466e-05
-0.00618444 -1.99445e-05 1.12393e-07
-0.00611893 1.40141e-05 6.98398e-06
-0.00583211 -3.54667e-06 -4.30543e-05
-0.00546105 4.00678e-05 -2.37086e-05
-0.00481511 5.84729e-06 -8.97958e-05
-0.00418887 6.87819e-05 -4.18741e-05
-0.00325415 3.4644e-06 -0.000135871
-0.00251681 9.98298e-05 -3.63204e-05
-0.00148898 -1.50735e-05 -0.000175188
-0.000907191 0.000141411 1.38836e-05
-0.000182437 -2.93634e-05 -0.000181288
0 0 0
0 0 0
-0.000159303 -6.53462e-05 0.000149946
-0.00115831 -0.000193584 -1.71658e-06
-0.00201533 -7.94092e-05 0.000160689
-0.00339606 -9.93835e-05 6.3104e-05
-0.00452114 -3.43099e-05 0.000140597
-0.00584028 -4.79893e-05 7.62344e-05
-0.00688007 -1.99965e-05 0.000110643
-0.00790751 -3.65129e-05 6.24517e-05
-0.00866444 -2.90631e-05 7.35263e-05
-0.00927459 -4.95188e-05 3.08998e-05
-0.00962811 -5.26459e-05 3.11083e-05
-0.0097367 -7.74321e-05 -1.30179e-05
-0.00961451 -8.31695e-05 -1.30441e-05
-0.00917122 -0.000111483 -6.45423e-05
-0.00855755 -0.000109427 -5.25941e-05
-0.00756746 -0.000137553 -0.00011777
-0.00653647 -0.000110417 -7.61655e-05
-0.00510745 -0.000132778 -0.000164639
-0.00388309 -5.48062e-05 -6.6288e-05
-0.00230845 -7.49762e-05 -0.000195431
-0.00133913 7.50991e-05 9.54589e-06
-0.000176574 -3.4988e-05 -0.000183026
0 0 0
0 0 0
-0.000165783 -7.63291e-05 0.000189315
-0.00139017 -0.000221039 1.56835e-05
-0.00246354 -0.000110121 0.000203098
-0.00413865 -0.000142797 8.70486e-05
-0.0055106 -6.52153e-05 0.000174782
-0.0070945 -8.50446e-05 9.74888e-05
-0.00834489 -4.6246e-05 0.000136292
-0.00956882 -6.61502e-05 7.90616e-05
-0.0104692 -5.0894e-05 9.20252e-05
-0.0111889 -7.36076e-05 4.25224e-05
-0.0116017 -7.0511e-05 4.38753e-05
-0.0117217 -9.76437e-05 -6.53378e-06
-0.0115656 -9.70964e-05 -4.926e-06
-0.0110303 -0.0001289 -6.38865e-05
-0.0102892 -0.000118538 -4.87374e-05
-0.00910639 -0.000152342 -0.000124639
-0.00786651 -0.000112947 -7.66263e-05
-0.00616131 -0.000144544 -0.000181474
-0.00468004 -5.13509e-05 -7.01792e-05
-0.00279348 -8.65542e-05 -0.000223034
-0.00159464 6.57399e-05 1.02116e-05
-0.000201154 -4.83457e-05 -0.000209489
0 0 0
0 0 0
-0.000180719 -0.000118401 0.000179807
-0.00150635 -0.000244014 -1.18543e-06
-0.00268906 -0.000165293 0.000196921
-0.00452555 -0.00017888 7.82311e-05
-0.00603775 -0.000112131 0.000170076
-0.00777058 -0.000115769 9.20011e-05
-0.00914242 -8.21587e-05 0.000132002
-0.0104762 -9.25803e-05 7.41159e-05
-0.0114585 -8.2592e-05 8.67454e-05
-0.0122388 -0.000101007 3.61724e-05
-0.0126841 -0.000104527 3.63312e-05
-0.0128096 -0.000129472 -1.55323e-05
-0.0126317 -0.000136721 -1.54242e-05
-0.0120435 -0.000164575 -7.59627e-05
-0.0112255 -0.000162472 -6.18187e-05
-0.00993218 -0.000186177 -0.000138973
-0.00856724 -0.000155784 -9.0051e-05
-0.00670387 -0.000167821 -0.000195753
-0.00507428 -8.92823e-05 -7.92177e-05
-0.00301518 -9.72676e-05 -0.000234166
-0.00170508 2.21874e-05 1.30076e-05
-0.000205503 -4.92363e-05 -0.000214194
0 0 0
0 0 0
-0.000181834 -0.000112442 0.000198413
-0.0015639 -0.000227062 3.9234e-06
-0.00279829 -0.000170337 0.000215699
-0.00472573 -0.000188955 8.7338e-05
-0.00630683 -0.00013063 0.000185626
-0.00812208 -0.000135184 0.000100967
-0.00955292 -0.000101213 0.000143908
-0.0109456 -0.000108886 8.14345e-05
-0.011967 -9.45802e-05 9.53813e-05
-0.0127784 -0.000108078 4.12887e-05
-0.0132391 -0.000105385 4.22118e-05
-0.0133662 -0.000124233 -1.29174e-05
-0.0131778 -0.00012451 -1.18662e-05
-0.0125604 -0.000146159 -7.6302e-05
-0.0117057 -0.000138008 -6.03119e-05
-0.0103522 -0.000157477 -0.000142975
-0.00892765 -0.000125751 -9.02054e-05
-0.00697772 -0.000138753 -0.000204104
-0.00527731 -7.04923e-05 -7.98097e-05
-0.00312578 -8.52862e-05 -0.000246528
-0.00176355 7.92354e-06 1.55783e-05
-0.000216201 -5.01309e-05 -0.000226638
0 0 0
0 0 0
-0.000190412 -0.000123209 0.000193104
-0.00158612 -0.000218017 -6.81746e-06
-0.00283958 -0.000184543 0.000210945
-0.00480821 -0.000197519 7.9268e-05
-0.00642166 -0.000152011 0.000181186
-0.00827927 -0.000150951 9.48703e-05
-0.00974059 -0.000121347 0.000139878
-0.011165 -0.000123051 7.65031e-05
-0.0122077 -0.000109121 9.15424e-05
-0.0130366 -0.000116661 3.67353e-05
-0.013506 -0.000112751 3.82353e-05
-0.0136345 -0.00012527 -1.76923e-05
-0.0134405 -0.000124063 -1.61389e-05
-0.0128071 -0.000138434 -8.15978e-05
-0.0119321 -0.000130192 -6.45996e-05
-0.0105448 -0.000141548 -0.000148634
-0.00908781 -0.000114576 -9.3541e-05
-0.00709093 -0.000119891 -0.000209527
-0.00535567 -6.68383e-05 -8.05745e-05
-0.00315969 -7.44958e-05 -0.000251003
-0.00177981 -8.20887e-06 1.90359e-05
-0.000219709 -4.45072e-05 -0.00022944
0 0 0
0 0 0
-0.000189599 -0.000102868 0.000201627
-0.00159294 -0.000180863 -4.97554e-06
-0.00285088 -0.000160621 0.000219173
-0.00484066 -0.000173933 8.26229e-05
-0.00646675 -0.000139111 0.000188113
-0.00834666 -0.000138797 9.84348e-05
-0.00982104 -0.000113532 0.0001453
-0.0112622 -0.000113689 7.95755e-05
-0.0123144 -9.96554e-05 9.55714e-05
-0.0131524 -0.000103608 3.89639e-05
-0.0136261 -9.70895e-05 4.10836e-05
-0.0137554 -0.000104691 -1.65222e-05
-0.0135595 -0.000100142 -1.42645e-05
-0.0129175 -0.000109376 -8.17309e-05
-0.0120342 -9.94972e-05 -6.35103e-05
-0.010629 -0.000107351 -0.000150372
-0.00915846 -8.41187e-05 -9.29577e-05
-0.00713713 -8.95076e-05 -0.000213103
-0.0053883 -4.93395e-05 -7.99404e-05
-0.00317108 -5.90247e-05 -0.000256221
-0.00178655 -1.24178e-05 2.06798e-05
-0.000223984 -3.91104e-05 -0.000235087
0 0 0
0 0 0
-0.000193922 -9.30926e-05 0.000198666
-0.00159317 -0.000152724 -1.06599e-05
-0.00284997 -0.000143169 0.000216247
-0.00484618 -0.000152726 7.76543e-05
-0.00647602 -0.000127846 0.000185314
-0.00836613 -0.000125922 9.44353e-05
-0.00984629 -0.000105933 0.000142801
-0.0112963 -0.000103863 7.64108e-05
-0.0123536 -9.15899e-05 9.34093e-05
-0.013197 -9.23953e-05 3.63525e-05
-0.0136733 -8.56922e-05 3.92085e-05
-0.0138033 -8.93157e-05 -1.88515e-05
-0.0136067 -8.41321e-05 -1.58642e-05
-0.0129602 -8.89e-05 -8.39575e-05
-0.0120725 -7.98566e-05 -6.46874e-05
-0.0106575 -8.3542e-05 -0.000152523
-0.00918031 -6.52722e-05 -9.33528e-05
-0.00714649 -6.75636e-05 -0.000215075
-0.00539281 -3.87903e-05 -7.91076e-05
-0.0031675 -4.50485e-05 -0.000257894
-0.00178457 -1.39987e-05 2.28395e-05
-0.00022604 -3.03233e-05 -0.000236378
0 0 0
0 0 0
-0.000193126 -6.45992e-05 0.000202339
-0.0015913 -0.000107064 -9.86439e-06
-0.00284544 -0.000102143 0.000219756
-0.0048449 -0.000109763 7.89533e-05
-0.00647511 -9.3073e-05 0.00018834
-0.0083706 -9.20633e-05 9.58657e-05
-0.00985284 -7.78218e-05 0.000145221
-0.0113077 -7.61355e-05 7.76826e-05
-0.0123671 -6.67572e-05 9.52345e-05
-0.0132136 -6.67297e-05 3.72804e-05
-0.0136913 -6.0999e-05 4.05129e-05
-0.0138218 -6.27952e-05 -1.83926e-05
-0.0136252 -5.80593e-05 -1.49881e-05
-0.0129762 -6.07369e-05 -8.40859e-05
-0.0120871 -5.35014e-05 -6.4131e-05
-0.0106668 -5.58575e-05 -0.000153355
-0.0091874 -4.28748e-05 -9.29633e-05
-0.00714719 -4.50864e-05 -0.00021667
-0.00539264 -2.60601e-05 -7.86654e-05
-0.00316389 -3.16537e-05 -0.000260136
-0.0017832 -1.19011e-05 2.35453e-05
-0.0002277 -2.2729e-05 -0.000238872
0 0 0
0 0 0
-0.000194903 -4.40526e-05 0.000201013
-0.00158965 -6.93242e-05 -1.22424e-05
-0.00284165 -6.79273e-05 0.000218425
-0.00484101 -7.212e-05 7.67315e-05
-0.00647049 -6.26078e-05 0.000187075
-0.00836805 -6.14366e-05 9.40234e-05
-0.00985096 -5.27219e-05 0.000144106
-0.0113083 -5.09997e-05 7.62316e-05
-0.0123688 -4.49007e-05 9.43121e-05
-0.0132169 -4.41355e-05 3.61359e-05
-0.0136955 -4.0136e-05 3.9788e-05
-0.0138264 -4.04586e-05 -1.93345e-05
-0.01363 -3.70588e-05 -1.55059e-05
-0.0129797 -3.78908e-05 -8.49084e-05
-0.0120898 -3.30838e-05 -6.43846e-05
-0.0106668 -3.37342e-05 -0.000154096
-0.0091865 -2.57801e-05 -9.2842e-05
-0.00714329 -2.6465e-05 -0.00021733
-0.00538903 -1.54924e-05 -7.80736e-05
-0.00315959 -1.8325e-05 -0.000260701
-0.00178105 -7.50098e-06 2.45139e-05
-0.000228628 -1.30135e-05 -0.000239353
0 0 0
0 0 0
-0.000194611 -1.19386e-05 0.000202036
-0.00158861 -2.035e-05 -1.20092e-05
-0.00283941 -1.96503e-05 0.000219405
-0.00483896 -2.12989e-05 7.70829e-05
-0.00646794 -1.81984e-05 0.000187934
-0.00836648 -1.80853e-05 9.44128e-05
-0.00984956 -1.53216e-05 0.000144802
-0.0113079 -1.49992e-05 7.65809e-05
-0.0123689 -1.31008e-05 9.484e-05
-0.0132178 -1.30525e-05 3.63885e-05
-0.0136968 -1.18254e-05 4.01649e-05
-0.0138278 -1.21101e-05 -1.9219e-05
-0.0136315 -1.10667e-05 -1.52536e-05
-0.0129806 -1.15343e-05 -8.4965e-05
-0.0120906 -1.00414e-05 -6.42225e-05
-0.0106664 -1.05135e-05 -0.000154354
-0.00918593 -8.02689e-06 -9.27227e-05
-0.00714145 -8.59623e-06 -0.000217799
-0.00538753 -5.15043e-06 -7.79394e-05
-0.00315781 -6.44937e-06 -0.00026134
-0.00178029 -2.9602e-06 2.46994e-05
-0.000229064 -4.92408e-06 -0.000240066
0 0 0
0 0 0
-0.000194611 1.19386e-05 0.000202036
-0.00158861 2.035e-05 -1.20092e-05
-0.00283941 1.96503e-05 0.000219405
-0.00483896 2.12989e-05 7.70829e-05
-0.00646794 1.81984e-05 0.000187934
-0.00836648 1.80853e-05 9.44128e-05
-0.00984956 1.53216e-05 0.000144802
-0.0113079 1.49992e-05 7.65809e-05
-0.0123689 1.31008e-05 9.484e-05
-0.0132178 1.30525e-05 3.63885e-05
-0.0136968 1.18254e-05 4.01649e-05
-0.0138278 1.21101e-05 -1.9219e-05
-0.0136315 1.10667e-05 -1.52536e-05
-0.0129806 1.15343e-05 -8.4965e-05
-0.0120906 1.00414e-05 -6.42225e-05
-0.0106664 1.05135e-05 -0.000154354
-0.00918593 8.02689e-06 -9.27227e-05
-0.00714145 8.59623e-06 -0.000217799
-0.00538753 5.15043e-06 -7.79394e-05
-0.00315781 6.44937e-06 -0.00026134
-0.00178029 2.9602e-06 2.46994e-05
-0.000229064 4.92408e-06 -0.000240066
0 0 0
0 0 0
-0.000194903 4.40526e-05 0.000201013
-0.00158965 6.93242e-05 -1.22424e-05
-0.00284165 6.79273e-05 0.000218425
-0.00484101 7.212e-05 7.67315e-05
-0.00647049 6.26078e-05 0.000187075
-0.00836805 6.14366e-05 9.40234e-05
-0.00985096 5.27219e-05 0.000144106
-0.0113083 5.09997e-05 7.62316e-05
-0.0123688 4.49007e-05 9.43121e-05
-0.0132169 4.41355e-05 3.61359e-05
-0.0136955 4.0136e-05 3.9788e-05
-0.0138264 4.04586e-05 -1.93345e-05
-0.01363 3.70588e-05 -1.55059e-05
-0.0129797 3.78908e-05 -8.49084e-05
-0.0120898 3.30838e-05 -6.43846e-05
-0.0106668 3.37342e-05 -0.000154096
-0.0091865 2.57801e-05 -9.2842e-05
-0.00714329 2.6465e-05 -0.00021733
-0.00538903 1.54924e-05 -7.80736e-05
-0.00315959 1.8325e-05 -0.000260701
-0.00178105 7.50098e-06 2.45139e-05
-0.000228628 1.30135e-05 -0.000239353
0 0 0
0 0 0
-0.000193126 6.45992e-05 0.000202339
-0.0015913 0.000107064 -9.86439e-06
-0.00284544 0.000102143 0.000219756
-0.0048449 0.000109763 7.89533e-05
-0.00647511 9.3073e-05 0.00018834
-0.0083706 9.20633e-05 9.58657e-05
-0.00985284 7.78218e-05 0.000145221
-0.0113077 7.61355e-05 7.76826e-05
-0.0123671 6.67572e-05 9.52345e-05
-0.0132136 6.67297e-05 3.72804e-05
-0.0136913 6.0999e-05 4.05129e-05
-0.0138218 6.27952e-05 -1.83926e-05
-0.0136252 5.80593e-05 -1.49881e-05
-0.0129762 6.07369e-05 -8.40859e-05
-0.0120871 5.35014e-05 -6.4131e-05
-0.0106668 5.58575e-05 -0.000153355
-0.0091874 4.28748e-05 -9.29633e-05
-0.00714719 4.50864e-05 -0.00021667
-0.00539264 2.60601e-05 -7.86654e-05
-0.00316389 3.16537e-05 -0.000260136
-0.0017832 1.19011e-05 2.35453e-05
-0.0002277 2.2729e-05 -0.000238872
0 0 0
0 0 0
-0.000193922 9.30926e-05 0.000198666
-0.00159317 0.000152724 -1.06599e-05
-0.00284997 0.000143169 0.000216247
-0.00484618 0.000152726 7.76543e-05
-0.00647602 0.000127846 0.000185314
-0.00836613 0.000125922 9.44353e-05
-0.00984629 0.000105933 0.000142801
-0.0112963 0.000103863 7.64108e-05
-0.0123536 9.15899e-05 9.34093e-05
-0.013197 9.23953e-05 3.63525e-05
-0.0136733 8.56922e-05 3.92085e-05
-0.0138033 8.93157e-05 -1.88515e-05
-0.0136067 8.41321e-05 -1.58642e-05
-0.0129602 8.89e-05 -8.39575e-05
-0.0120725 7.98566e-05 -6.46874e-05
-0.0106575 8.3542e-05 -0.000152523
-0.00918031 6.52722e-05 -9.33528e-05
-0.00714649 6.75636e-05 -0.000215075
-0.00539281 3.87903e-05 -7.91076e-05
-0.0031675 4.50485e-05 -0.000257894
-0.00178457 1.39987e-05 2.28395e-05
-0.00022604 3.03233e-05 -0.000236378
0 0 0
0 0 0
-0.000189599 0.000102868 0.000201627
-0.00159294 0.000180863 -4.97554e-06
-0.00285088 0.000160621 0.000219173
-0.00484066 0.000173933 8.26229e-05
-0.00646675 0.000139111 0.000188113
-0.00834666 0.000138797 9.84348e-05
-0.00982104 0.000113532 0.0001453
-0.0112622 0.000113689 7.95755e-05
-0.0123144 9.96554e-05 9.55714e-05
-0.0131524 0.000103608 3.89639e-05
-0.0136261 9.70895e-05 4.10836e-05
-0.0137554 0.000104691 -1.65222e-05
-0.0135595 0.000100142 -1.42645e-05
-0.0129175 0.000109376 -8.17309e-05
-0.0120342 9.94972e-05 -6.35103e-05
-0.010629 0.000107351 -0.000150372
-0.00915846 8.41187e-05 -9.29577e-05
-0.00713713 8.95076e-05 -0.000213103
-0.0053883 4.93395e-05 -7.99404e-05
-0.00317108 5.90247e-05 -0.000256221
-0.00178655 1.24178e-05 2.06798e-05
-0.000223984 3.91104e-05 -0.000235087
0 0 0
0 0 0
-0.000190412 0.000123209 0.000193104
-0.00158612 0.000218017 -6.81746e-06
-0.00283958 0.000184543 0.000210945
-0.00480821 0.000197519 7.9268e-05
-0.00642166 0.000152011 0.000181186
-0.00827927 0.000150951 9.48703e-05
-0.00974059 0.000121347 0.000139878
-0.011165 0.000123051 7.65031e-05
-0.0122077 0.000109121 9.15424e-05
-0.0130366 0.000116661 3.67353e-05
-0.013506 0.000112751 3.82353e-05
-0.0136345 0.00012527 -1.76923e-05
-0.0134405 0.000124063 -1.61389e-05
-0.0128071 0.000138434 -8.15978e-05
-0.0119321 0.000130192 -6.45996e-05
-0.0105448 0.000141548 -0.000148634
-0.00908781 0.000114576 -9.3541e-05
-0.00709093 0.000119891 -0.000209527
-0.00535567 6.68383e-05 -8.05745e-05
-0.00315969 7.44958e-05 -0.000251003
-0.00177981 8.20887e-06 1.90359e-05
-0.000219709 4.45072e-05 -0.00022944
0 0 0
0 0 0
-0.000181834 0.000112442 0.000198413
-0.0015639 0.000227062 3.9234e-06
-0.00279829 0.000170337 0.000215699
-0.00472573 0.000188955 8.7338e-05
-0.00630683 0.00013063 0.000185626
-0.00812208 0.000135184 0.000100967
-0.00955292 0.000101213 0.000143908
-0.0109456 0.000108886 8.14345e-05
-0.011967 9.45802e-05 9.53813e-05
-0.0127784 0.000108078 4.12887e-05
-0.0132391 0.000105385 4.22118e-05
-0.0133662 0.000124233 -1.29174e-05
-0.0131778 0.00012451 -1.18662e-05
-0.0125604 0.000146159 -7.6302e-05
-0.0117057 0.000138008 -6.03119e-05
-0.0103522 0.000157477 -0.000142975
-0.00892765 0.000125751 -9.02054e-05
-0.00697772 0.000138753 -0.000204104
-0.00527731 7.04923e-05 -7.98097e-05
-0.00312578 8.52862e-05 -0.000246528
-0.00176355 -7.92354e-06 1.55783e-05
-0.000216201 5.01309e-05 -0.000226638
0 0 0
0 0 0
-0.000180719 0.000118401 0.000179807
-0.00150635 0.000244014 -1.18543e-06
-0.00268906 0.000165293 0.000196921
-0.00452555 0.00017888 7.82311e-05
-0.00603775 0.000112131 0.000170076
-0.00777058 0.000115769 9.20011e-05
-0.00914242 8.21587e-05 0.000132002
-0.0104762 9.25803e-05 7.41159e-05
-0.0114585 8.2592e-05 8.67454e-05
-0.0122388 0.000101007 3.61724e-05
-0.0126841 0.000104527 3.63312e-05
-0.0128096 0.000129472 -1.55323e-05
-0.0126317 0.000136721 -1.54242e-05
-0.0120435 0.000164575 -7.59627e-05
-0.0112255 0.000162472 -6.18187e-05
-0.00993218 0.000186177 -0.000138973
-0.00856724 0.000155784 -9.0051e-05
-0.00670387 0.000167821 -0.000195753
-0.00507428 8.92823e-05 -7.92177e-05
-0.00301518 9.72676e-05 -0.000234166
-0.00170508 -2.21874e-05 1.30076e-05
-0.000205503 4.92363e-05 -0.000214194
0 0 0
0 0 0
-0.000165783 7.63291e-05 0.000189315
-0.00139017 0.000221039 1.56835e-05
-0.00246354 0.000110121 0.000203098
-0.00413865 0.000142797 8.70486e-05
-0.0055106 6.52153e-05 0.000174782
-0.0070945 8.50446e-05 9.74888e-05
-0.00834489 4.6246e-05 0.000136292
-0.00956882 6.61502e-05 7.90616e-05
-0.0104692 5.0894e-05 9.20252e-05
-0.0111889 7.36076e-05 4.25224e-05
-0.0116017 7.0511e-05 4.38753e-05
-0.0117217 9.76437e-05 -6.53378e-06
-0.0115656 9.70964e-05 -4.926e-06
-0.0110303 0.0001289 -6.38865e-05
-0.0102892 0.000118538 -4.87374e-05
-0.00910639 0.000152342 -0.000124639
-0.00786651 0.000112947 -7.66263e-05
-0.00616131 0.000144544 -0.000181474
-0.00468004 5.13509e-05 -7.01792e-05
-0.00279348 8.65542e-05 -0.000223034
-0.00159464 -6.57399e-05 1.02116e-05
-0.000201154 4.83457e-05 -0.000209489
0 0 0
0 0 0
-0.000159303 6.53462e-05 0.000149946
-0.00115831 0.000193584 -1.71658e-06
-0.00201533 7.94092e-05 0.000160689
-0.00339606 9.93835e-05 6.3104e-05
-0.00452114 3.43099e-05 0.000140597
-0.00584028 4.79893e-05 7.62344e-05
-0.00688007 1.99965e-05 0.000110643
-0.00790751 3.65129e-05 6.24517e-05
-0.00866444 2.90631e-05 7.35263e-05
-0.00927459 4.95188e-05 3.08998e-05
-0.00962811 5.26459e-05 3.11083e-05
-0.0097367 7.74321e-05 -1.30179e-05
-0.00961451 8.31695e-05 -1.30441e-05
-0.00917122 0.000111483 -6.45423e-05
-0.00855755 0.000109427 -5.25941e-05
-0.00756746 0.000137553 -0.00011777
-0.00653647 0.000110417 -7.61655e-05
-0.00510745 0.000132778 -0.000164639
-0.00388309 5.48062e-05 -6.6288e-05
-0.00230845 7.49762e-05 -0.000195431
-0.00133913 -7.50991e-05 9.54589e-06
-0.000176574 3.4988e-05 -0.000183026
0 0 0
0 0 0
-0.000144832 6.84351e-07 0.000169651
-0.0007611 0.000137639 1.80654e-05
-0.00126882 1.50574e-05 0.00016808
-0.00216078 0.000106691 6.41626e-05
-0.00283871 3.26343e-05 0.000142193
-0.00369507 8.39447e-05 7.34697e-05
-0.0043356 3.49004e-05 0.000111702
-0.0050049 6.16763e-05 6.20612e-05
-0.00548088 2.5558e-05 7.81739e-05
-0.00588066 3.99998e-05 3.62578e-05
-0.00611055 8.40764e-06 4.2466e-05
-0.00618444 1.99445e-05 1.12393e-07
-0.00611893 -1.40141e-05 6.98398e-06
-0.00583211 3.54667e-06 -4.30543e-05
-0.00546105 -4.00678e-05 -2.37086e-05
-0.00481511 -5.84729e-06 -8.97958e-05
-0.00418887 -6.87819e-05 -4.18741e-05
-0.00325415 -3.4644e-06 -0.000135871
-0.00251681 -9.98298e-05 -3.63204e-05
-0.00148898 1.50735e-05 -0.000175188
-0.000907191 -0.000141411 1.38836e-05
-0.000182437 2.93634e-05 -0.000181288
0 0 0
0 0 0
0 0 0
0 0 0
0 0 0
0 0 0
0 0 0
0 0 0
0 0 0
0 0 0
0 0 0
0 0 0
0 0 0
0 0 0
0 0 0
0 0 0
0 0 0
0 0 0
0 0 0
0 0 0
0 0 0
0 0 0
0 0 0
0 0 0
0 0 0
0 0 0
0 0 0
0 0 0
0 0 0
0 0 0
0 0 0
0 0 0
0 0 0
0 0 0
0 0 0
0 0 0
0 0 0
0 0 0
0 0 0
0 0 0
0 0 0
0 0 0
0 0 0
0 0 0
0 0 0
0 0 0
0 0 0
0 0 0
0 0 0
0 0 0
-4.12616e-05 0.000111529 0.000868987
-0.00112042 -3.61649e-05 0.00110275
-0.00200356 0.000117942 0.00146359
-0.00346164 2.61256e-05 0.00145783
-0.00463217 0.00010278 0.00150634
-0.00601124 4.40496e-05 0.00136648
-0.00709198 8.01994e-05 0.00125998
-0.00816302 3.70927e-05 0.00105095
-0.00895158 5.12465e-05 0.0008598
-0.00959029 1.39292e-05 0.000603452
-0.00996399 1.8317e-05 0.000359851
-0.0100846 -1.96258e-05 6.70797e-05
-0.00996784 -1.47267e-05 -0.000201636
-0.00951528 -5.88438e-05 -0.000514397
-0.00888792 -4.20119e-05 -0.000768579
-0.00786092 -9.83977e-05 -0.00107067
-0.0067943 -5.34017e-05 -0.00124332
-0.00529635 -0.000131734 -0.00147874
-0.00401972 -3.45738e-05 -0.00145294
-0.00234823 -0.000153672 -0.00152567
-0.0013396 3.85175e-05 -0.00111445
-7.95163e-05 -0.000147932 -0.000929691
0 0 0
0 0 0
-5.93296e-05 -2.65377e-05 0.00124
-0.00180115 -0.000188448 0.00169912
-0.00332186 -1.86761e-05 0.002261
-0.00563448 -2.62647e-05 0.00231421
-0.00759744 6.13094e-05 0.00236923
-0.00978056 4.48356e-05 0.00216949
-0.0115584 6.7931e-05 0.0019753
-0.0132479 3.30658e-05 0.00164722
-0.0145226 1.91941e-05 0.0013206
-0.0155225 -3.01194e-05 0.000910496
-0.0161081 -6.39597e-05 0.000502263
-0.0162868 -0.00012358 3.39246e-05
-0.0160699 -0.000163512 -0.000414289
-0.0153466 -0.000227729 -0.000909147
-0.0142974 -0.000255572 -0.0013366
-0.0126763 -0.000312008 -0.00180124
-0.0109037 -0.000296858 -0.00210226
-0.00855029 -0.000327859 -0.00243261
-0.00641389 -0.000224659 -0.00241655
-0.00379281 -0.000228182 -0.00243557
-0.00207984 -2.83271e-06 -0.0017985
-7.24601e-05 -0.000127828 -0.00136842
0 0 0
0 0 0
-5.04112e-05 -4.87098e-05 0.00148487
-0.00221121 -0.000236327 0.00208077
-0.00413679 -7.57501e-05 0.0027785
-0.0069805 -9.56221e-05 0.00286435
-0.00940893 7.51124e-06 0.00292563
-0.0120694 -1.22822e-05 0.00268022
-0.0142416 2.40667e-05 0.00242838
-0.0162853 -1.27324e-05 0.00201787
-0.0178265 -1.81184e-05 0.0016033
-0.019024 -6.96369e-05 0.00109123
-0.0197184 -9.76994e-05 0.00057841
-0.0199183 -0.000160333 -3.3232e-06
-0.0196363 -0.000194706 -0.000563223
-0.0187478 -0.000262802 -0.00117453
-0.0174589 -0.00028209 -0.00170773
-0.0154913 -0.000343216 -0.00227718
-0.0133245 -0.000313418 -0.00265353
-0.0104738 -0.000350767 -0.00304728
-0.00785083 -0.000228401 -0.00302739
-0.00466642 -0.000244852 -0.0030148
-0.00252464 -1.92955e-05 -0.00222091
-8.13658e-05 -0.000146496 -0.00164029
0 0 0
0 0 0
-6.23553e-05 -0.000136536 0.00156215
-0.00242601 -0.000310504 0.00222191
-0.00456609 -0.000197475 0.0029974
-0.00770758 -0.000199384 0.00310876
-0.0104027 -0.000106384 0.0031778
-0.0133352 -0.000104881 0.00291354
-0.0157343 -6.74578e-05 0.00263247
-0.0179779 -8.75093e-05 0.00218118
-0.0196702 -9.03278e-05 0.00172009
-0.0209774 -0.000129586 0.00115561
-0.0217311 -0.000155918 0.00058676
-0.0219403 -0.000208127 -5.40859e-05
-0.0216172 -0.000241757 -0.000674315
-0.0206325 -0.000297367 -0.00134606
-0.0192005 -0.000316346 -0.00193623
-0.0170326 -0.00035893 -0.00255772
-0.0146327 -0.000330862 -0.00297241
-0.0114951 -0.000341942 -0.00339068
-0.00859118 -0.000232655 -0.00336064
-0.00509138 -0.000220484 -0.00331531
-0.00273041 -4.07425e-05 -0.00242499
-7.96644e-05 -0.000120282 -0.00176088
0 0 0
0 0 0
-5.62811e-05 -0.000140476 0.00161147
-0.0025313 -0.000302126 0.00229263
-0.00477643 -0.000225197 0.00311468
-0.00808488 -0.000237009 0.00323482
-0.0109172 -0.000156616 0.00331205
-0.0140007 -0.000155189 0.0030347
-0.0165161 -0.00011501 0.00273998
-0.0188678 -0.000127792 0.00226477
-0.0206366 -0.000120848 0.00177991
-0.0220013 -0.000148783 0.00118599
-0.0227842 -0.000161974 0.00058816
-0.0229966 -0.000200713 -8.54087e-05
-0.0226519 -0.00021981 -0.00073663
-0.0216136 -0.000261598 -0.00144207
-0.0201089 -0.00026753 -0.00206069
-0.0178306 -0.000299763 -0.00271215
-0.0153121 -0.000266774 -0.00314368
-0.0120161 -0.00027745 -0.00357825
-0.00897022 -0.000183268 -0.0035362
-0.00529945 -0.000183767 -0.00347844
-0.00283311 -4.62024e-05 -0.00252848
-8.12803e-05 -0.00011027 -0.0018314
0 0 0
0 0 0
-6.2409e-05 -0.000165962 0.0016075
-0.00257385 -0.000304036 0.00229054
-0.00486094 -0.000262054 0.00313434
-0.0082472 -0.00027142 0.00325977
-0.0111453 -0.000208325 0.00334392
-0.0143061 -0.00020032 0.0030633
-0.0168811 -0.000162583 0.00276543
-0.0192902 -0.000164704 0.00228215
-0.0210995 -0.000152662 0.00178919
-0.0224955 -0.000167777 0.00118446
-0.0232945 -0.000172483 0.000575735
-0.0235092 -0.00019693 -0.000110522
-0.0231533 -0.000206667 -0.000773957
-0.0220861 -0.000233107 -0.00149281
-0.0205421 -0.000232044 -0.0021225
-0.0182035 -0.000249834 -0.00278551
-0.0156217 -0.000218641 -0.00322201
-0.0122412 -0.000219885 -0.00366118
-0.00912519 -0.000146107 -0.00360936
-0.00537178 -0.000143411 -0.0035432
-0.00286543 -4.7012e-05 -0.00256218
-8.04745e-05 -8.69309e-05 -0.00185339
0 0 0
0 0 0
-5.879e-05 -0.0001432 0.00160716
-0.00258717 -0.000257953 0.00228412
-0.004887 -0.00023584 0.00313949
-0.00831167 -0.000248303 0.00326491
-0.0112377 -0.000200546 0.00335446
-0.0144384 -0.000194263 0.00307148
-0.0170407 -0.000161186 0.00277383
-0.0194798 -0.000159822 0.00228656
-0.0213083 -0.00014498 0.00179111
-0.0227207 -0.000152541 0.00118137
-0.0235278 -0.000150217 0.000568654
-0.0237439 -0.000164683 -0.000123501
-0.0233835 -0.000166059 -0.000791555
-0.0223012 -0.000182279 -0.00151689
-0.0207393 -0.000175541 -0.00215044
-0.018369 -0.000186503 -0.00281952
-0.0157584 -0.000158497 -0.00325642
-0.0123342 -0.000160415 -0.00369916
-0.00918818 -0.000105104 -0.00364
-0.00539526 -0.000108776 -0.00357287
-0.00287635 -4.24136e-05 -0.00257466
-8.04363e-05 -7.17191e-05 -0.00186636
0 0 0
0 0 0
-6.20429e-05 -0.000131367 0.00159327
-0.00258842 -0.000220596 0.00226305
-0.00488863 -0.000212915 0.00312256
-0.0083262 -0.000222758 0.00324798
-0.0112619 -0.000188714 0.00334154
-0.0144807 -0.000181626 0.00305898
-0.0170954 -0.000154621 0.0027637
-0.0195499 -0.000149761 0.00227667
-0.0213883 -0.000134994 0.00178246
-0.0228099 -0.000136466 0.00117259
-0.0236219 -0.000130777 0.000560312
-0.0238392 -0.000137392 -0.000132515
-0.023477 -0.000134479 -0.000800606
-0.0223869 -0.000142379 -0.00152712
-0.0208161 -0.000133737 -0.00216047
-0.018429 -0.000138069 -0.00283083
-0.0158046 -0.000115107 -0.00326598
-0.0123587 -0.000114227 -0.00370931
-0.00920101 -7.47988e-05 -0.00364513
-0.00539263 -7.74142e-05 -0.00357769
-0.00287379 -3.41181e-05 -0.00257155
-8.04092e-05 -5.2103e-05 -0.00186639
0 0 0
0 0 0
-6.03303e-05 -9.29853e-05 0.00158737
-0.00258565 -0.000156802 0.00225096
-0.00488263 -0.00015462 0.00311258
-0.00832583 -0.000163075 0.00323692
-0.011264 -0.000140429 0.00333316
-0.0144919 -0.000135768 0.00305056
-0.0171116 -0.000116297 0.00275718
-0.0195743 -0.000112119 0.00227032
-0.0214174 -0.000100277 0.00177737
-0.0228441 -9.99271e-05 0.00116761
-0.0236587 -9.40189e-05 0.000556144
-0.0238768 -9.70225e-05 -0.000136843
-0.0235142 -9.29461e-05 -0.000804361
-0.0224201 -9.69622e-05 -0.00153138
-0.0208456 -8.9213e-05 -0.00216399
-0.0184497 -9.1448e-05 -0.00283512
-0.0158198 -7.4872e-05 -0.00326865
-0.0123631 -7.49353e-05 -0.00371285
-0.00920185 -4.90477e-05 -0.00364544
-0.00538696 -5.28353e-05 -0.00357926
-0.00287086 -2.5745e-05 -0.00256884
-8.02926e-05 -3.76996e-05 -0.0018676
0 0 0
0 0 0
-6.17673e-05 -6.29124e-05 0.00157962
-0.00258299 -0.000101249 0.00223908
-0.0048768 -0.000102146 0.00310111
-0.00832029 -0.000106973 0.00322501
-0.0112582 -9.40693e-05 0.00332296
-0.0144895 -9.05631e-05 0.00304092
-0.0171112 -7.84976e-05 0.00274924
-0.0195778 -7.48933e-05 0.00226325
-0.0214233 -6.68768e-05 0.0017718
-0.0228528 -6.53997e-05 0.00116293
-0.0236689 -6.0756e-05 0.000552728
-0.0238877 -6.12371e-05 -0.00013954
-0.0235251 -5.76829e-05 -0.000805977
-0.0224289 -5.87779e-05 -0.00153254
-0.0208529 -5.3205e-05 -0.00216406
-0.0184525 -5.33837e-05 -0.002835
-0.0158202 -4.30771e-05 -0.00326713
-0.0123586 -4.23612e-05 -0.0037114
-0.00919689 -2.75181e-05 -0.00364206
-0.00538042 -2.94307e-05 -0.00357659
-0.00286735 -1.4817e-05 -0.00256441
-8.04396e-05 -2.09649e-05 -0.00186587
0 0 0
0 0 0
-6.12754e-05 -1.77508e-05 0.00157729