# vtk DataFile Version 3.0
CFD lid driven cavity 3D
ASCII
DATASET STRUCTURED_POINTS
DIMENSIONS 25 25 25
ORIGIN 0 0 0
SPACING 0.0416667 0.0416667 0.0416667
CELL_DATA 13824
VECTORS velocity double
0 0 0
0 0 0
0 0 0
0 0 0
0 0 0
0 0 0
0 0 0
0 0 0
0 0 0
0 0 0
0 0 0
0 0 0
0 0 0
0 0 0
0 0 0
0 0 0
0 0 0
0 0 0
0 0 0
0 0 0
0 0 0
0 0 0
0 0 0
0 0 0
0 0 0
0 0 0
0 0 0
0 0 0
0 0 0
0 0 0
0 0 0
0 0 0
0 0 0
0 0 0
0 0 0
0 0 0
0 0 0
0 0 0
0 0 0
0 0 0
0 0 0
0 0 0
0 0 0
0 0 0
0 0 0
0 0 0
0 0 0
0 0 0
0 0 0
0 0 0
0 0 0
0 0 0
0 0 0
0 0 0
0 0 0
0 0 0
0 0 0
0 0 0
0 0 0
0 0 0
0 0 0
0 0 0
0 0 0
0 0 0
0 0 0
0 0 0
0 0 0
0 0 0
0 0 0
0 0 0
0 0 0
0 0 0
0 0 0
0 0 0
0 0 0
0 0 0
0 0 0
0 0 0
0 0 0
0 0 0
0 0 0
0 0 0
0 0 0
0 0 0
0 0 0
0 0 0
0 0 0
0 0 0
0 0 0
0 0 0
0 0 0
0 0 0
0 0 0
0 0 0
0 0 0
0 0 0
0 0 0
0 0 0
0 0 0
0 0 0
0 0 0
0 0 0
0 0 0
0 0 0
0 0 0
0 0 0
0 0 0
0 0 0
0 0 0
0 0 0
0 0 0
0 0 0
0 0 0
0 0 0
0 0 0
0 0 0
0 0 0
0 0 0
0 0 0
0 0 0
0 0 0
0 0 0
0 0 0
0 0 0
0 0 0
0 0 0
0 0 0
0 0 0
0 0 0
0 0 0
0 0 0
0 0 0
0 0 0
0 0 0
0 0 0
0 0 0
0 0 0
0 0 0
0 0 0
0 0 0
0 0 0
0 0 0
0 0 0
0 0 0
0 0 0
0 0 0
0 0 0
0 0 0
0 0 0
0 0 0
0 0 0
0 0 0
0 0 0
0 0 0
0 0 0
0 0 0
0 0 0
0 0 0
0 0 0
0 0 0
0 0 0
0 0 0
0 0 0
0 0 0
0 0 0
0 0 0
0 0 0
0 0 0
0 0 0
0 0 0
0 0 0
0 0 0
0 0 0
0 0 0
0 0 0
0 0 0
0 0 0
0 0 0
0 0 0
0 0 0
0 0 0
0 0 0
0 0 0
0 0 0
0 0 0
0 0 0
0 0 0
0 0 0
0 0 0
0 0 0
0 0 0
0 0 0
0 0 0
0 0 0
0 0 0
0 0 0
0 0 0
0 0 0
0 0 0
0 0 0
0 0 0
0 0 0
0 0 0
0 0 0
0 0 0
0 0 0
0 0 0
0 0 0
0 0 0
0 0 0
0 0 0
0 0 0
0 0 0
0 0 0
0 0 0
0 0 0
0 0 0
0 0 0
0 0 0
0 0 0
0 0 0
0 0 0
0 0 0
0 0 0
0 0 0
0 0 0
0 0 0
0 0 0
0 0 0
0 0 0
0 0 0
0 0 0
0 0 0
0 0 0
0 0 0
0 0 0
0 0 0
0 0 0
0 0 0
0 0 0
0 0 0
0 0 0
0 0 0
0 0 0
0 0 0
0 0 0
0 0 0
0 0 0
0 0 0
0 0 0
0 0 0
0 0 0
0 0 0
0 0 0
0 0 0
0 0 0
0 0 0
0 0 0
0 0 0
0 0 0
0 0 0
0 0 0
0 0 0
0 0 0
0 0 0
0 0 0
0 0 0
0 0 0
0 0 0
0 0 0
0 0 0
0 0 0
0 0 0
0 0 0
0 0 0
0 0 0
0 0 0
0 0 0
0 0 0
0 0 0
0 0 0
0 0 0
0 0 0
0 0 0
0 0 0
0 0 0
0 0 0
0 0 0
0 0 0
0 0 0
0 0 0
0 0 0
0 0 0
0 0 0
0 0 0
0 0 0
0 0 0
0 0 0
0 0 0
0 0 0
0 0 0
0 0 0
0 0 0
0 0 0
0 0 0
0 0 0
0 0 0
0 0 0
0 0 0
0 0 0
0 0 0
0 0 0
0 0 0
0 0 0
0 0 0
0 0 0
0 0 0
0 0 0
0 0 0
0 0 0
0 0 0
0 0 0
0 0 0
0 0 0
0 0 0
0 0 0
0 0 0
0 0 0
0 0 0
0 0 0
0 0 0
0 0 0
0 0 0
0 0 0
0 0 0
0 0 0
0 0 0
0 0 0
0 0 0
0 0 0
0 0 0
0 0 0
0 0 0
0 0 0
0 0 0
0 0 0
0 0 0
0 0 0
0 0 0
0 0 0
0 0 0
0 0 0
0 0 0
0 0 0
0 0 0
0 0 0
0 0 0
0 0 0
0 0 0
0 0 0
0 0 0
0 0 0
0 0 0
0 0 0
0 0 0
0 0 0
0 0 0
0 0 0
0 0 0
0 0 0
0 0 0
0 0 0
0 0 0
0 0 0
0 0 0
0 0 0
0 0 0
0 0 0
0 0 0
0 0 0
0 0 0
0 0 0
0 0 0
0 0 0
0 0 0
0 0 0
0 0 0
0 0 0
0 0 0
0 0 0
0 0 0
0 0 0
0 0 0
0 0 0
0 0 0
0 0 0
0 0 0
0 0 0
0 0 0
0 0 0
0 0 0
0 0 0
0 0 0
0 0 0
0 0 0
0 0 0
0 0 0
0 0 0
0 0 0
0 0 0
0 0 0
0 0 0
0 0 0
0 0 0
0 0 0
0 0 0
0 0 0
0 0 0
0 0 0
0 0 0
0 0 0
0 0 0
0 0 0
0 0 0
0 0 0
0 0 0
0 0 0
0 0 0
0 0 0
0 0 0
0 0 0
0 0 0
0 0 0
0 0 0
0 0 0
0 0 0
0 0 0
0 0 0
0 0 0
0 0 0
0 0 0
0 0 0
0 0 0
0 0 0
0 0 0
0 0 0
0 0 0
0 0 0
0 0 0
0 0 0
0 0 0
0 0 0
0 0 0
0 0 0
0 0 0
0 0 0
0 0 0
0 0 0
0 0 0
0 0 0
0 0 0
0 0 0
0 0 0
0 0 0
0 0 0
0 0 0
0 0 0
0 0 0
0 0 0
0 0 0
0 0 0
0 0 0
0 0 0
0 0 0
0 0 0
0 0 0
0 0 0
0 0 0
0 0 0
0 0 0
0 0 0
0 0 0
0 0 0
0 0 0
0 0 0
0 0 0
0 0 0
0 0 0
0 0 0
0 0 0
0 0 0
0 0 0
0 0 0
0 0 0
0 0 0
0 0 0
0 0 0
0 0 0
0 0 0
0 0 0
0 0 0
0 0 0
0 0 0
0 0 0
0 0 0
0 0 0
0 0 0
0 0 0
0 0 0
0 0 0
0 0 0
0 0 0
0 0 0
0 0 0
0 0 0
0 0 0
0 0 0
0 0 0
0 0 0
0 0 0
0 0 0
0 0 0
0 0 0
0 0 0
0 0 0
0 0 0
0 0 0
0 0 0
0 0 0
0 0 0
0 0 0
0 0 0
0 0 0
0 0 0
0 0 0
0 0 0
0 0 0
0 0 0
0 0 0
0 0 0
0 0 0
0 0 0
0 0 0
0 0 0
0 0 0
0 0 0
0 0 0
0 0 0
0 0 0
0 0 0
0 0 0
0 0 0
0 0 0
0 0 0
0 0 0
0 0 0
0 0 0
0 0 0
0 0 0
0 0 0
0 0 0
0 0 0
0 0 0
0 0 0
0 0 0
0 0 0
0 0 0
0 0 0
0 0 0
0 0 0
0 0 0
0 0 0
0 0 0
0 0 0
0 0 0
0 0 0
0 0 0
0 0 0
0 0 0
0 0 0
0 0 0
0 0 0
0 0 0
0 0 0
0 0 0
0 0 0
0 0 0
0 0 0
0 0 0
0 0 0
0 0 0
0 0 0
0 0 0
0 0 0
0 0 0
0 0 0
0 0 0
0 0 0
0 0 0
0 0 0
0 0 0
-0.00013185 -7.81128e-06 0.000166847
-0.000659237 -0.000142045 1.84327e-05
-0.00111466 -2.14081e-05 0.000169179
-0.00195904 -0.000114307 6.67503e-05
-0.00262471 -3.99861e-05 0.000148018
-0.00348867 -9.34313e-05 7.98616e-05
-0.00415636 -4.37464e-05 0.000121083
-0.00486475 -7.23298e-05 7.16491e-05
-0.00538633 -3.53432e-05 9.02003e-05
-0.00583118 -5.12586e-05 4.79499e-05
-0.00610312 -1.83375e-05 5.62219e-05
-0.00620485 -3.14619e-05 1.23916e-05
-0.00615761 4.7065e-06 2.14508e-05
-0.00586322 -1.5249e-05 -3.18235e-05
-0.00547592 3.20113e-05 -9.07835e-06
-0.00478642 -6.25142e-06 -8.06337e-05
-0.00412303 6.23858e-05 -2.63633e-05
-0.00314163 -9.23059e-06 -0.00012805
-0.00238855 9.51509e-05 -1.79592e-05
-0.00136934 -2.7589e-05 -0.000166123
-0.000823655 0.000137477 3.49314e-05
-0.000179418 -3.9434e-05 -0.000169723
0 0 0
0 0 0
-0.000154276 -0.000106362 0.00013706
-0.00103368 -0.000257269 -1.22979e-05
-0.00182846 -0.000141444 0.000152007
-0.00316653 -0.000161531 5.63982e-05
-0.00430344 -8.84015e-05 0.000138465
-0.00566958 -0.000100477 7.51246e-05
-0.00678408 -6.94829e-05 0.000112914
-0.00790239 -8.86949e-05 6.47654e-05
-0.00875448 -8.45895e-05 7.76835e-05
-0.00945344 -0.000112741 3.38495e-05
-0.00988234 -0.000124242 3.46661e-05
-0.0100379 -0.000160537 -1.23842e-05
-0.00993657 -0.000176619 -1.22214e-05
-0.00946866 -0.000216939 -6.84455e-05
-0.00880416 -0.000221453 -5.4866e-05
-0.00771833 -0.000256191 -0.00012603
-0.00659068 -0.000223936 -7.82531e-05
-0.00505213 -0.00024227 -0.000172941
-0.00376375 -0.00014322 -6.15313e-05
-0.00216657 -0.00015145 -0.000197174
-0.00123062 2.86847e-05 2.40676e-05
-0.000166348 -7.17833e-05 -0.000177485
0 0 0
0 0 0
-0.000154085 -0.000134426 0.000186183
-0.00127149 -0.000318444 1.44646e-05
-0.00230316 -0.000204698 0.000207082
-0.00397357 -0.00023795 9.29425e-05
-0.00540273 -0.000148332 0.000186388
-0.00708668 -0.000165456 0.000109582
-0.00846463 -0.000122029 0.000151804
-0.00983032 -0.000145513 9.38297e-05
-0.01087 -0.000134817 0.000108286
-0.0117137 -0.000168307 5.67378e-05
-0.0122258 -0.000176853 5.82861e-05
-0.012403 -0.000220053 4.00806e-06
-0.0122637 -0.00023377 5.417e-06
-0.0116831 -0.000282236 -5.95589e-05
-0.0108569 -0.000280761 -4.31161e-05
-0.00952884 -0.000323653 -0.00012686
-0.00813622 -0.000276981 -7.26366e-05
-0.00625884 -0.00030286 -0.000186043
-0.00465831 -0.000180167 -6.05456e-05
-0.00270155 -0.000197879 -0.000222389
-0.0015075 -1.4521e-06 3.02306e-05
-0.000198476 -0.000100224 -0.000201052
0 0 0
0 0 0
-0.000175848 -0.000208155 0.000171142
-0.00141351 -0.000391062 -9.59839e-06
-0.00258374 -0.000311834 0.000196218
-0.00445956 -0.000327971 7.87628e-05
-0.00607678 -0.000246497 0.000177435
-0.00796285 -0.00024601 9.93841e-05
-0.00951222 -0.000206033 0.000142969
-0.0110346 -0.000219782 8.37104e-05
-0.0121946 -0.000215225 9.73146e-05
-0.0131287 -0.000246342 4.37675e-05
-0.0136916 -0.000264683 4.30965e-05
-0.0138798 -0.000308996 -1.38334e-05
-0.0137108 -0.00033452 -1.51543e-05
-0.0130546 -0.000381704 -8.29883e-05
-0.0121158 -0.000390909 -6.84675e-05
-0.0106281 -0.000423091 -0.000154296
-0.00905456 -0.000383827 -9.88332e-05
-0.00695674 -0.000384756 -0.000213057
-0.00515233 -0.000270467 -7.98045e-05
-0.00297183 -0.000252243 -0.000243328
-0.0016367 -7.89802e-05 2.83433e-05
-0.000200587 -0.000123924 -0.000211629
0 0 0
0 0 0
-0.000174147 -0.000208206 0.000195418
-0.00149443 -0.000387356 -1.24584e-06
-0.0027437 -0.000332829 0.000221938
-0.00475402 -0.000356136 9.37519e-05
-0.00648252 -0.000283066 0.000200181
-0.00849747 -0.000283364 0.000114755
-0.010147 -0.000242029 0.000161443
-0.0117658 -0.000252187 9.68e-05
-0.0129947 -0.000242133 0.000111362
-0.0139821 -0.000267297 5.34498e-05
-0.0145729 -0.000278137 5.29628e-05
-0.0147653 -0.000315146 -8.17232e-06
-0.014578 -0.000332222 -9.16635e-06
-0.0138732 -0.000371825 -8.20484e-05
-0.0128691 -0.000373456 -6.61312e-05
-0.0112813 -0.000400384 -0.000158793
-0.00960373 -0.000359021 -9.92754e-05
-0.00736854 -0.000361094 -0.000223102
-0.00544765 -0.000257861 -8.04943e-05
-0.00313147 -0.000247421 -0.000257317
-0.00171706 -0.000101378 3.29941e-05
-0.0002161 -0.000129441 -0.000224106
0 0 0
0 0 0
-0.000186819 -0.000228365 0.000187098
-0.0015373 -0.000389649 -1.69622e-05
-0.0028265 -0.000362728 0.000214509
-0.00491015 -0.000382459 8.19403e-05
-0.0067024 -0.000323951 0.000193007
-0.00879441 -0.000318852 0.000105303
-0.0105047 -0.000281508 0.00015436
-0.0121833 -0.000284473 8.83295e-05
-0.0134552 -0.000273267 0.000103861
-0.0144762 -0.000290412 4.47071e-05
-0.0150846 -0.000297865 4.44113e-05
-0.0152795 -0.000325898 -1.81537e-05
-0.01508 -0.000338985 -1.91311e-05
-0.0143434 -0.000368337 -9.37471e-05
-0.0132961 -0.000367705 -7.70712e-05
-0.0116432 -0.000384175 -0.000171729
-0.00989857 -0.00034724 -0.000109365
-0.00757699 -0.000341253 -0.000235713
-0.00558707 -0.000256102 -8.65536e-05
-0.00319396 -0.000239927 -0.000267648
-0.00174413 -0.000125321 3.42305e-05
-0.000219018 -0.000128934 -0.000230683
0 0 0
0 0 0
-0.000184511 -0.000196868 0.000198516
-0.00155606 -0.00033566 -1.438e-05
-0.00286254 -0.000323894 0.00022597
-0.00499054 -0.000344872 8.74199e-05
-0.0068165 -0.000299471 0.0002031
-0.00895522 -0.000295791 0.000111373
-0.0106991 -0.000263166 0.000162581
-0.0124137 -0.000263553 9.36952e-05
-0.0137097 -0.000250572 0.00011011
-0.0147508 -0.000261457 4.86818e-05
-0.0153693 -0.000263099 4.87717e-05
-0.0155656 -0.000282435 -1.59844e-05
-0.0153595 -0.000288387 -1.65309e-05
-0.0146035 -0.000308872 -9.37759e-05
-0.0135322 -0.000303992 -7.60071e-05
-0.0118399 -0.000315293 -0.000174237
-0.0100584 -0.000283127 -0.000109229
-0.00768544 -0.000279397 -0.000240609
-0.00565933 -0.00021322 -8.60612e-05
-0.00322393 -0.000204105 -0.000274104
-0.00175818 -0.000118194 3.69227e-05
-0.000225905 -0.000114667 -0.00023677
0 0 0
0 0 0
-0.00019085 -0.000176929 0.000193885
-0.00156379 -0.000287972 -2.30832e-05
-0.00287624 -0.00028816 0.000221356
-0.00502392 -0.000305252 7.99331e-05
-0.00686602 -0.000272665 0.000198489
-0.00902997 -0.000268123 0.000105115
-0.0107922 -0.000241768 0.000158152
-0.0125281 -0.000239165 8.83427e-05
-0.0138383 -0.000226735 0.00010586
-0.014892 -0.00023201 4.37745e-05
-0.0155169 -0.000230623 4.45722e-05
-0.0157144 -0.000242364 -2.08749e-05
-0.0155044 -0.000244252 -2.07626e-05
-0.0147364 -0.000256674 -9.89326e-05
-0.0136505 -0.000250411 -8.00519e-05
-0.0119337 -0.000255827 -0.0001796
-0.0101304 -0.000229891 -0.000112384
-0.00772753 -0.000224764 -0.00024575
-0.00568282 -0.000175922 -8.72834e-05
-0.00322675 -0.00016773 -0.000278462
-0.00175744 -0.000106277 3.82506e-05
-0.000227809 -9.63192e-05 -0.000239994
0 0 0
0 0 0
-0.00018924 -0.00012563 0.000198813
-0.00156474 -0.00020641 -2.22428e-05
-0.00287748 -0.000209672 0.000226134
-0.00503624 -0.000223504 8.18039e-05
-0.00688543 -0.000201571 0.000202699
-0.00906381 -0.000198759 0.000107336
-0.0108355 -0.000179656 0.000161613
-0.0125837 -0.000177226 9.04014e-05
-0.0139017 -0.000167163 0.000108527
-0.0149627 -0.00016976 4.53369e-05
-0.0155914 -0.000167131 4.64765e-05
-0.0157897 -0.000174055 -2.00312e-05
-0.015578 -0.000173621 -1.95554e-05
-0.0148031 -0.000181123 -9.89999e-05
-0.0137096 -0.000175263 -7.94055e-05
-0.0119788 -0.000178537 -0.000180698
-0.0101644 -0.000159985 -0.000112005
-0.00774487 -0.000157241 -0.000247833
-0.00569169 -0.000124591 -8.6689e-05
-0.00322564 -0.000120611 -0.0002812
-0.00175627 -8.00398e-05 3.94894e-05
-0.000230662 -7.11657e-05 -0.000242763
0 0 0
0 0 0
-0.000191803 -8.41136e-05 0.000196725
-0.00156446 -0.00013318 -2.59822e-05
-0.00287618 -0.000137644 0.000223977
-0.00503828 -0.000145928 7.83489e-05
-0.00688989 -0.000133517 0.000200545
-0.00907494 -0.000131273 0.000104388
-0.010851 -0.000119503 0.000159589
-0.0126057 -0.000117109 8.7937e-05
-0.0139279 -0.00011029 0.000106693
-0.0149932 -0.000110763 4.32175e-05
-0.0156241 -0.000108244 4.48252e-05
-0.015823 -0.000111255 -2.19671e-05
-0.0156104 -0.000110027 -2.10334e-05
-0.0148317 -0.000113355 -0.000100883
-0.0137341 -0.000109 -8.06289e-05
-0.0119955 -0.000109894 -0.000182557
-0.0101754 -9.84043e-05 -0.000112757
-0.00774721 -9.60411e-05 -0.000249588
-0.00569054 -7.70001e-05 -8.67063e-05
-0.00322065 -7.41862e-05 -0.000282725
-0.00175296 -5.09872e-05 4.02049e-05
-0.00023155 -4.40782e-05 -0.000244011
0 0 0
0 0 0
-0.000191249 -2.40578e-05 0.000198089
-0.00156361 -4.03982e-05 -2.57728e-05
-0.00287432 -4.15542e-05 0.000225281
-0.00503813 -4.46176e-05 7.87993e-05
-0.00689047 -4.05297e-05 0.000201699
-0.00907854 -4.00819e-05 0.000104946
-0.0108564 -3.62923e-05 0.000160545
-0.012614 -3.57559e-05 8.84707e-05
-0.013938 -3.36109e-05 0.000107438
-0.0150051 -3.39759e-05 4.36307e-05
-0.015637 -3.32308e-05 4.5368e-05
-0.0158362 -3.44058e-05 -2.17432e-05
-0.0156234 -3.40737e-05 -2.06727e-05
-0.014843 -3.53783e-05 -0.000100905
-0.0137437 -3.40478e-05 -8.04069e-05
-0.0120018 -3.465e-05 -0.000182861
-0.0101795 -3.10586e-05 -0.000112591
-0.0077476 -3.07297e-05 -0.000250162
-0.00568975 -2.47516e-05 -8.64804e-05
-0.00321841 -2.43135e-05 -0.000283483
-0.00175167 -1.69007e-05 4.05508e-05
-0.000232322 -1.47556e-05 -0.000244809
0 0 0
0 0 0
-0.000191249 2.40578e-05 0.000198089
-0.00156361 4.03982e-05 -2.57728e-05
-0.00287432 4.15542e-05 0.000225281
-0.00503813 4.46176e-05 7.87993e-05
-0.00689047 4.05297e-05 0.000201699
-0.00907854 4.00819e-05 0.000104946
-0.0108564 3.62923e-05 0.000160545
-0.012614 3.57559e-05 8.84707e-05
-0.013938 3.36109e-05 0.000107438
-0.0150051 3.39759e-05 4.36307e-05
-0.015637 3.32308e-05 4.5368e-05
-0.0158362 3.44058e-05 -2.17432e-05
-0.0156234 3.40737e-05 -2.06727e-05
-0.014843 3.53783e-05 -0.000100905
-0.0137437 3.40478e-05 -8.04069e-05
-0.0120018 3.465e-05 -0.000182861
-0.0101795 3.10586e-05 -0.000112591
-0.0077476 3.07297e-05 -0.000250162
-0.00568975 2.47516e-05 -8.64804e-05
-0.00321841 2.43135e-05 -0.000283483
-0.00175167 1.69007e-05 4.05508e-05
-0.000232322 1.47556e-05 -0.000244809
0 0 0
0 0 0
-0.000191803 8.41136e-05 0.000196725
-0.00156446 0.00013318 -2.59822e-05
-0.00287618 0.000137644 0.000223977
-0.00503828 0.000145928 7.83489e-05
-0.00688989 0.000133517 0.000200545
-0.00907494 0.000131273 0.000104388
-0.010851 0.000119503 0.000159589
-0.0126057 0.000117109 8.7937e-05
-0.0139279 0.00011029 0.000106693
-0.0149932 0.000110763 4.32175e-05
-0.0156241 0.000108244 4.48252e-05
-0.015823 0.000111255 -2.19671e-05
-0.0156104 0.000110027 -2.10334e-05
-0.0148317 0.000113355 -0.000100883
-0.0137341 0.000109 -8.06289e-05
-0.0119955 0.000109894 -0.000182557
-0.0101754 9.84043e-05 -0.000112757
-0.00774721 9.60411e-05 -0.000249588
-0.00569054 7.70001e-05 -8.67063e-05
-0.00322065 7.41862e-05 -0.000282725
-0.00175296 5.09872e-05 4.02049e-05
-0.00023155 4.40782e-05 -0.000244011
0 0 0
0 0 0
-0.00018924 0.00012563 0.000198813
-0.00156474 0.00020641 -2.22428e-05
-0.00287748 0.000209672 0.000226134
-0.00503624 0.000223504 8.18039e-05
-0.00688543 0.000201571 0.000202699
-0.00906381 0.000198759 0.000107336
-0.0108355 0.000179656 0.000161613
-0.0125837 0.000177226 9.04014e-05
-0.0139017 0.000167163 0.000108527
-0.0149627 0.00016976 4.53369e-05
-0.0155914 0.000167131 4.64765e-05
-0.0157897 0.000174055 -2.00312e-05
-0.015578 0.000173621 -1.95554e-05
-0.0148031 0.000181123 -9.89999e-05
-0.0137096 0.000175263 -7.94055e-05
-0.0119788 0.000178537 -0.000180698
-0.0101644 0.000159985 -0.000112005
-0.00774487 0.000157241 -0.000247833
-0.00569169 0.000124591 -8.6689e-05
-0.00322564 0.000120611 -0.0002812
-0.00175627 8.00398e-05 3.94894e-05
-0.000230662 7.11657e-05 -0.000242763
0 0 0
0 0 0
-0.00019085 0.000176929 0.000193885
-0.00156379 0.000287972 -2.30832e-05
-0.00287624 0.00028816 0.000221356
-0.00502392 0.000305252 7.99331e-05
-0.00686602 0.000272665 0.000198489
-0.00902997 0.000268123 0.000105115
-0.0107922 0.000241768 0.000158152
-0.0125281 0.000239165 8.83427e-05
-0.0138383 0.000226735 0.00010586
-0.014892 0.00023201 4.37745e-05
-0.0155169 0.000230623 4.45722e-05
-0.0157144 0.000242364 -2.08749e-05
-0.0155044 0.000244252 -2.07626e-05
-0.0147364 0.000256674 -9.89326e-05
-0.0136505 0.000250411 -8.00519e-05
-0.0119337 0.000255827 -0.0001796
-0.0101304 0.000229891 -0.000112384
-0.00772753 0.000224764 -0.00024575
-0.00568282 0.000175922 -8.72834e-05
-0.00322675 0.00016773 -0.000278462
-0.00175744 0.000106277 3.82506e-05
-0.000227809 9.63192e-05 -0.000239994
0 0 0
0 0 0
-0.000184511 0.000196868 0.000198516
-0.00155606 0.00033566 -1.438e-05
-0.00286254 0.000323894 0.00022597
-0.00499054 0.000344872 8.74199e-05
-0.0068165 0.000299471 0.0002031
-0.00895522 0.000295791 0.000111373
-0.0106991 0.000263166 0.000162581
-0.0124137 0.000263553 9.36952e-05
-0.0137097 0.000250572 0.00011011
-0.0147508 0.000261457 4.86818e-05
-0.0153693 0.000263099 4.87717e-05
-0.0155656 0.000282435 -1.59844e-05
-0.0153595 0.000288387 -1.65309e-05
-0.0146035 0.000308872 -9.37759e-05
-0.0135322 0.000303992 -7.60071e-05
-0.0118399 0.000315293 -0.000174237
-0.0100584 0.000283127 -0.000109229
-0.00768544 0.000279397 -0.000240609
-0.00565933 0.00021322 -8.60612e-05
-0.00322393 0.000204105 -0.000274104
-0.00175818 0.000118194 3.69227e-05
-0.000225905 0.000114667 -0.00023677
0 0 0
0 0 0
-0.000186819 0.000228365 0.000187098
-0.0015373 0.000389649 -1.69622e-05
-0.0028265 0.000362728 0.000214509
-0.00491015 0.000382459 8.19403e-05
-0.0067024 0.000323951 0.000193007
-0.00879441 0.000318852 0.000105303
-0.0105047 0.000281508 0.00015436
-0.0121833 0.000284473 8.83295e-05
-0.0134552 0.000273267 0.000103861
-0.0144762 0.000290412 4.47071e-05
-0.0150846 0.000297865 4.44113e-05
-0.0152795 0.000325898 -1.81537e-05
-0.01508 0.000338985 -1.91311e-05
-0.0143434 0.000368337 -9.37471e-05
-0.0132961 0.000367705 -7.70712e-05
-0.0116432 0.000384175 -0.000171729
-0.00989857 0.00034724 -0.000109365
-0.00757699 0.000341253 -0.000235713
-0.00558707 0.000256102 -8.65536e-05
-0.00319396 0.000239927 -0.000267648
-0.00174413 0.000125321 3.42305e-05
-0.000219018 0.000128934 -0.000230683
0 0 0
0 0 0
-0.000174147 0.000208206 0.000195418
-0.00149443 0.000387356 -1.24584e-06
-0.0027437 0.000332829 0.000221938
-0.00475402 0.000356136 9.37519e-05
-0.00648252 0.000283066 0.000200181
-0.00849747 0.000283364 0.000114755
-0.010147 0.000242029 0.000161443
-0.0117658 0.000252187 9.68e-05
-0.0129947 0.000242133 0.000111362
-0.0139821 0.000267297 5.34498e-05
-0.0145729 0.000278137 5.29628e-05
-0.0147653 0.000315146 -8.17232e-06
-0.014578 0.000332222 -9.16635e-06
-0.0138732 0.000371825 -8.20484e-05
-0.0128691 0.000373456 -6.61312e-05
-0.0112813 0.000400384 -0.000158793
-0.00960373 0.000359021 -9.92754e-05
-0.00736854 0.000361094 -0.000223102
-0.00544765 0.000257861 -8.04943e-05
-0.00313147 0.000247421 -0.000257317
-0.00171706 0.000101378 3.29941e-05
-0.0002161 0.000129441 -0.000224106
0 0 0
0 0 0
-0.000175848 0.000208155 0.000171142
-0.00141351 0.000391062 -9.59839e-06
-0.00258374 0.000311834 0.000196218
-0.00445956 0.000327971 7.87628e-05
-0.00607678 0.000246497 0.000177435
-0.00796285 0.00024601 9.93841e-05
-0.00951222 0.000206033 0.000142969
-0.0110346 0.000219782 8.37104e-05
-0.0121946 0.000215225 9.73146e-05
-0.0131287 0.000246342 4.37675e-05
-0.0136916 0.000264683 4.30965e-05
-0.0138798 0.000308996 -1.38334e-05
-0.0137108 0.00033452 -1.51543e-05
-0.0130546 0.000381704 -8.29883e-05
-0.0121158 0.000390909 -6.84675e-05
-0.0106281 0.000423091 -0.000154296
-0.00905456 0.000383827 -9.88332e-05
-0.00695674 0.000384756 -0.000213057
-0.00515233 0.000270467 -7.98045e-05
-0.00297183 0.000252243 -0.000243328
-0.0016367 7.89802e-05 2.83433e-05
-0.000200587 0.000123924 -0.000211629
0 0 0
0 0 0
-0.000154085 0.000134426 0.000186183
-0.00127149 0.000318444 1.44646e-05
-0.00230316 0.000204698 0.000207082
-0.00397357 0.00023795 9.29425e-05
-0.00540273 0.000148332 0.000186388
-0.00708668 0.000165456 0.000109582
-0.00846463 0.000122029 0.000151804
-0.00983032 0.000145513 9.38297e-05
-0.01087 0.000134817 0.000108286
-0.0117137 0.000168307 5.67378e-05
-0.0122258 0.000176853 5.82861e-05
-0.012403 0.000220053 4.00806e-06
-0.0122637 0.00023377 5.417e-06
-0.0116831 0.000282236 -5.95589e-05
-0.0108569 0.000280761 -4.31161e-05
-0.00952884 0.000323653 -0.00012686
-0.00813622 0.000276981 -7.26366e-05
-0.00625884 0.00030286 -0.000186043
-0.00465831 0.000180167 -6.05456e-05
-0.00270155 0.000197879 -0.000222389
-0.0015075 1.4521e-06 3.02306e-05
-0.000198476 0.000100224 -0.000201052
0 0 0
0 0 0
-0.000154276 0.000106362 0.00013706
-0.00103368 0.000257269 -1.22979e-05
-0.00182846 0.000141444 0.000152007
-0.00316653 0.000161531 5.63982e-05
-0.00430344 8.84015e-05 0.000138465
-0.00566958 0.000100477 7.51246e-05
-0.00678408 6.94829e-05 0.000112914
-0.00790239 8.86949e-05 6.47654e-05
-0.00875448 8.45895e-05 7.76835e-05
-0.00945344 0.000112741 3.38495e-05
-0.00988234 0.000124242 3.46661e-05
-0.0100379 0.000160537 -1.23842e-05
-0.00993657 0.000176619 -1.22214e-05
-0.00946866 0.000216939 -6.84455e-05
-0.00880416 0.000221453 -5.4866e-05
-0.00771833 0.000256191 -0.00012603
-0.00659068 0.000223936 -7.82531e-05
-0.00505213 0.00024227 -0.000172941
-0.00376375 0.00014322 -6.15313e-05
-0.00216657 0.00015145 -0.000197174
-0.00123062 -2.86847e-05 2.40676e-05
-0.000166348 7.17833e-05 -0.000177485
0 0 0
0 0 0
-0.00013185 7.81128e-06 0.000166847
-0.000659237 0.000142045 1.84327e-05
-0.00111466 2.14081e-05 0.000169179
-0.00195904 0.000114307 6.67503e-05
-0.00262471 3.99861e-05 0.000148018
-0.00348867 9.34313e-05 7.98616e-05
-0.00415636 4.37464e-05 0.000121083
-0.00486475 7.23298e-05 7.16491e-05
-0.00538633 3.53432e-05 9.02003e-05
-0.00583118 5.12586e-05 4.79499e-05
-0.00610312 1.83375e-05 5.62219e-05
-0.00620485 3.14619e-05 1.23916e-05
-0.00615761 -4.7065e-06 2.14508e-05
-0.00586322 1.5249e-05 -3.18235e-05
-0.00547592 -3.20113e-05 -9.07835e-06
-0.00478642 6.25142e-06 -8.06337e-05
-0.00412303 -6.23858e-05 -2.63633e-05
-0.00314163 9.23059e-06 -0.00012805
-0.00238855 -9.51509e-05 -1.79592e-05
-0.00136934 2.7589e-05 -0.000166123
-0.000823655 -0.000137477 3.49314e-05
-0.000179418 3.9434e-05 -0.000169723
0 0 0
0 0 0
0 0 0
0 0 0
0 0 0
0 0 0
0 0 0
0 0 0
0 0 0
0 0 0
0 0 0
0 0 0
0 0 0
0 0 0
0 0 0
0 0 0
0 0 0
0 0 0
0 0 0
0 0 0
0 0 0
0 0 0
0 0 0
0 0 0
0 0 0
0 0 0
0 0 0
0 0 0
0 0 0
0 0 0
0 0 0
0 0 0
0 0 0
0 0 0
0 0 0
0 0 0
0 0 0
0 0 0
0 0 0
0 0 0
0 0 0
0 0 0
0 0 0
0 0 0
0 0 0
0 0 0
0 0 0
0 0 0
0 0 0
0 0 0
-2.81099e-05 0.000102258 0.000814218
-0.000982947 -4.27862e-05 0.00103943
-0.00179787 0.000112217 0.00143507
-0.00320978 2.13192e-05 0.0014678
-0.00438947 0.000101497 0.0015613
-0.00581482 4.27795e-05 0.00145489
-0.00697093 8.13047e-05 0.00137696
-0.00813496 3.71416e-05 0.00118548
-0.00902219 5.19975e-05 0.00100577
-0.00975416 1.23053e-05 0.000751337
-0.0102088 1.61861e-05 0.000503321
-0.0103819 -2.55926e-05 0.000196472
-0.010292 -2.12904e-05 -9.02436e-05
-0.00981901 -7.0481e-05 -0.000428958
-0.00914491 -5.24155e-05 -0.00070314
-0.00802276 -0.00011454 -0.00102769
-0.00686054 -6.38689e-05 -0.00119781
-0.00525009 -0.000148048 -0.0014307
-0.00390939 -3.94336e-05 -0.00135997
-0.00221358 -0.000165016 -0.00141091
-0.00123994 4.0492e-05 -0.000948752
-8.18124e-05 -0.000153642 -0.000815028
0 0 0
0 0 0
-5.53139e-05 -9.40975e-05 0.00115707
-0.0016405 -0.000296147 0.00160966
-0.00309155 -0.000122575 0.00223705
-0.00538788 -0.000126621 0.00236073
-0.00742218 -2.34687e-05 0.00249126
-0.00973982 -3.38967e-05 0.00234509
-0.0116939 -5.0116e-06 0.00219067
-0.0135818 -4.3376e-05 0.0018816
-0.0150541 -6.41187e-05 0.0015599
-0.0162326 -0.000127615 0.0011375
-0.016963 -0.000178644 0.000703772
-0.0172299 -0.000260373 0.000194209
-0.0170427 -0.000321968 -0.000303637
-0.0162641 -0.000409194 -0.00085791
-0.0150983 -0.000452148 -0.00133619
-0.0132783 -0.000520305 -0.00184685
-0.0112891 -0.000498277 -0.00215399
-0.00869394 -0.00051864 -0.00247433
-0.00638691 -0.000378154 -0.00238312
-0.00366423 -0.000354166 -0.00234412
-0.00196135 -7.48892e-05 -0.00161283
-6.64016e-05 -0.000182396 -0.0012329
0 0 0
0 0 0
-3.87282e-05 -0.000147497 0.00141974
-0.00207404 -0.000404293 0.00202523
-0.00397833 -0.000240489 0.00282176
-0.00688616 -0.00025736 0.00300364
-0.00948073 -0.000132525 0.0031609
-0.0123836 -0.000143837 0.00297727
-0.0148392 -9.93053e-05 0.00276432
-0.0171832 -0.000141014 0.00236248
-0.0190099 -0.000156068 0.00193539
-0.0204559 -0.000227469 0.00138713
-0.0213419 -0.00027943 0.00081974
-0.0216496 -0.000372608 0.0001633
-0.0213881 -0.000436606 -0.000482227
-0.0204028 -0.000536061 -0.00118969
-0.0189273 -0.000575429 -0.00180681
-0.0166618 -0.000651866 -0.00244893
-0.0141638 -0.00061182 -0.00284404
-0.0109447 -0.000633573 -0.00322689
-0.00803578 -0.000459198 -0.00310893
-0.0046486 -0.00043555 -0.00300789
-0.00245312 -0.00013202 -0.00207384
-8.27664e-05 -0.000229105 -0.00152284
0 0 0
0 0 0
-5.80873e-05 -0.000285224 0.00150166
-0.00234265 -0.000558341 0.00218286
-0.00452341 -0.000448495 0.00308531
-0.00781904 -0.000451173 0.00331095
-0.0107774 -0.000333322 0.00348949
-0.0140576 -0.000321281 0.00328938
-0.0168393 -0.000273212 0.00304211
-0.0194744 -0.000297781 0.00258658
-0.0215277 -0.000311479 0.00209435
-0.0231407 -0.000373489 0.00146992
-0.0241211 -0.000428221 0.000818596
-0.0244488 -0.000515823 7.2036e-05
-0.02413 -0.000584581 -0.000666705
-0.0230047 -0.000675364 -0.00146719
-0.0213166 -0.000717253 -0.00217056
-0.0187563 -0.000773933 -0.00288724
-0.0159156 -0.00073224 -0.00333136
-0.0122885 -0.000719301 -0.00373621
-0.00898687 -0.000547621 -0.00358653
-0.00518153 -0.000481695 -0.00342188
-0.00270222 -0.000208378 -0.00234391
-7.72232e-05 -0.000239458 -0.0016792
0 0 0
0 0 0
-4.92524e-05 -0.000301596 0.00156272
-0.00249732 -0.000574604 0.00227376
-0.0048404 -0.000507377 0.00324576
-0.00838769 -0.000524196 0.00349234
-0.011568 -0.00041982 0.00368787
-0.0150892 -0.000407779 0.00347376
-0.0180682 -0.000355467 0.00320649
-0.0208844 -0.000371146 0.00271443
-0.0230722 -0.00037292 0.00218176
-0.0247855 -0.00042146 0.00150738
-0.0258195 -0.000460475 0.000803763
-0.0261551 -0.000532017 -1.0296e-06
-0.0257991 -0.000583228 -0.00079723
-0.0245825 -0.000657139 -0.00165758
-0.0227648 -0.000682823 -0.00241244
-0.020017 -0.000726751 -0.00317731
-0.0169697 -0.00067853 -0.00364655
-0.0130854 -0.000665184 -0.00406667
-0.00955047 -0.000510141 -0.00388755
-0.00548803 -0.000458684 -0.00368655
-0.00284733 -0.0002296 -0.00250821
-8.16655e-05 -0.000238869 -0.00178378
0 0 0
0 0 0
-5.97842e-05 -0.000339431 0.00155716
-0.00258106 -0.000591573 0.00227236
-0.00500924 -0.000566947 0.00328141
-0.00869751 -0.00058547 0.00354061
-0.0120063 -0.000501851 0.00374888
-0.0156718 -0.000483984 0.00353032
-0.0187698 -0.000433498 0.00325543
-0.0216971 -0.000436263 0.00274648
-0.0239673 -0.000429779 0.00219427
-0.0257426 -0.000461296 0.001495
-0.0268095 -0.000487067 0.000764517
-0.0271494 -0.000538819 -7.04598e-05
-0.026769 -0.00057514 -0.00089705
-0.0254937 -0.000627719 -0.00178868
-0.0235925 -0.000641681 -0.00257027
-0.020725 -0.000667016 -0.0033588
-0.0175474 -0.000619861 -0.00383798
-0.0135033 -0.000597563 -0.00426103
-0.00983037 -0.000468708 -0.00405837
-0.00562164 -0.000418501 -0.0038308
-0.00290305 -0.000239516 -0.00259022
-7.83894e-05 -0.000221337 -0.00183344
0 0 0
0 0 0
-5.49428e-05 -0.000299656 0.00155603
-0.00261955 -0.000518507 0.00226403
-0.00508773 -0.000517075 0.00329438
-0.00885851 -0.000540896 0.00355734
-0.0122373 -0.000476977 0.00377485
-0.0159889 -0.000462407 0.00355279
-0.0191544 -0.000417195 0.00327531
-0.0221482 -0.000414679 0.00275657
-0.0244658 -0.000402178 0.00219461
-0.0262782 -0.000421173 0.00148128
-0.0273641 -0.000433829 0.000736662
-0.0277063 -0.000468537 -0.000115382
-0.027312 -0.000489265 -0.000958097
-0.0260008 -0.000524649 -0.00186759
-0.0240515 -0.000527797 -0.00266281
-0.0211112 -0.000543239 -0.00346511
-0.0178593 -0.00050074 -0.00394742
-0.0137203 -0.000483405 -0.00437301
-0.00997245 -0.00038365 -0.00415341
-0.00568266 -0.000349699 -0.00391335
-0.00292798 -0.000216353 -0.00263436
-7.90722e-05 -0.000192395 -0.00186503
0 0 0
0 0 0
-6.04355e-05 -0.00026869 0.00153571
-0.00263593 -0.000445675 0.00223324
-0.00511964 -0.000459628 0.00327272
-0.00892895 -0.000481123 0.0035374
-0.0123424 -0.00043558 0.00376148
-0.0161406 -0.000421985 0.00353951
-0.0193431 -0.000384411 0.00326342
-0.0223753 -0.000377209 0.00274219
-0.0247207 -0.000362368 0.002178
-0.0265555 -0.000370806 0.00146
-0.0276533 -0.000374643 0.000710611
-0.0279973 -0.000394867 -0.000147988
-0.0275951 -0.000404741 -0.000996862
-0.0262624 -0.000425317 -0.00191368
-0.0242843 -0.00042223 -0.0027139
-0.0213003 -0.000428318 -0.00352157
-0.0180054 -0.000392957 -0.00400315
-0.0138119 -0.000376831 -0.00442837
-0.0100251 -0.000303579 -0.0041974
-0.0056952 -0.00027779 -0.00395015
-0.002929 -0.000183285 -0.00265009
-7.75781e-05 -0.000155705 -0.00187652
0 0 0
0 0 0
-5.81595e-05 -0.000193889 0.00152546
-0.00263967 -0.000323032 0.00221331
-0.00512701 -0.000338792 0.00325733
-0.00895647 -0.000357099 0.00352141
-0.0123859 -0.000326876 0.00374981
-0.0162099 -0.000317659 0.00352767
-0.0194318 -0.0002901 0.00325331
-0.022486 -0.000283493 0.002731
-0.0248467 -0.000270505 0.00216654
-0.0266947 -0.000273962 0.00144644
-0.0277994 -0.000273493 0.000695348
-0.0281448 -0.000284843 -0.000166361
-0.0277387 -0.000288425 -0.00101773
-0.0263935 -0.000300165 -0.0019382
-0.0244001 -0.000295178 -0.00274024
-0.021391 -0.00029795 -0.00355079
-0.0180735 -0.000272292 -0.00403101
-0.0138501 -0.000262007 -0.00445657
-0.0100446 -0.000213216 -0.00421854
-0.00569515 -0.00019809 -0.00396902
-0.0029265 -0.000135962 -0.00265722
-7.75521e-05 -0.000113957 -0.00188405
0 0 0
0 0 0
-6.05195e-05 -0.000127982 0.00151308
-0.00263994 -0.000206818 0.00219398
-0.00512679 -0.000219983 0.00323923
-0.00896312 -0.000231371 0.00350294
-0.0123987 -0.000214331 0.00373406
-0.0162348 -0.000208093 0.00351262
-0.0194659 -0.000190917 0.00324028
-0.0225316 -0.000185423 0.0027186
-0.0249003 -0.000176136 0.00215534
-0.0267556 -0.000176295 0.00143545
-0.0278644 -0.000174192 0.000684792
-0.0282108 -0.000178934 -0.000177289
-0.0278027 -0.000179203 -0.00102875
-0.026451 -0.000184194 -0.00195004
-0.0244495 -0.000179618 -0.00275199
-0.0214269 -0.000179616 -0.0035632
-0.0180979 -0.0001636 -0.00404189
-0.0138592 -0.000156677 -0.00446719
-0.0100456 -0.000128441 -0.00422512
-0.00568839 -0.000119369 -0.00397465
-0.00292127 -8.41513e-05 -0.00265731
-7.70592e-05 -6.91003e-05 -0.00188542
0 0 0
0 0 0
-5.98655e-05 -3.81224e-05 0.00150879
-0.00263897 -6.43219e-05 0.0021861