# vtk DataFile Version 3.0
CFD lid driven cavity 3D
ASCII
DATASET STRUCTURED_POINTS
DIMENSIONS 25 25 25
ORIGIN 0 0 0
SPACING 0.0416667 0.0416667 0.0416667
CELL_DATA 13824
VECTORS velocity double
0 0 0
0 0 0
0 0 0
0 0 0
0 0 0
0 0 0
0 0 0
0 0 0
0 0 0
0 0 0
0 0 0
0 0 0
0 0 0
0 0 0
0 0 0
0 0 0
0 0 0
0 0 0
0 0 0
0 0 0
0 0 0
0 0 0
0 0 0
0 0 0
0 0 0
0 0 0
0 0 0
0 0 0
0 0 0
0 0 0
0 0 0
0 0 0
0 0 0
0 0 0
0 0 0
0 0 0
0 0 0
0 0 0
0 0 0
0 0 0
0 0 0
0 0 0
0 0 0
0 0 0
0 0 0
0 0 0
0 0 0
0 0 0
0 0 0
0 0 0
0 0 0
0 0 0
0 0 0
0 0 0
0 0 0
0 0 0
0 0 0
0 0 0
0 0 0
0 0 0
0 0 0
0 0 0
0 0 0
0 0 0
0 0 0
0 0 0
0 0 0
0 0 0
0 0 0
0 0 0
0 0 0
0 0 0
0 0 0
0 0 0
0 0 0
0 0 0
0 0 0
0 0 0
0 0 0
0 0 0
0 0 0
0 0 0
0 0 0
0 0 0
0 0 0
0 0 0
0 0 0
0 0 0
0 0 0
0 0 0
0 0 0
0 0 0
0 0 0
0 0 0
0 0 0
0 0 0
0 0 0
0 0 0
0 0 0
0 0 0
0 0 0
0 0 0
0 0 0
0 0 0
0 0 0
0 0 0
0 0 0
0 0 0
0 0 0
0 0 0
0 0 0
0 0 0
0 0 0
0 0 0
0 0 0
0 0 0
0 0 0
0 0 0
0 0 0
0 0 0
0 0 0
0 0 0
0 0 0
0 0 0
0 0 0
0 0 0
0 0 0
0 0 0
0 0 0
0 0 0
0 0 0
0 0 0
0 0 0
0 0 0
0 0 0
0 0 0
0 0 0
0 0 0
0 0 0
0 0 0
0 0 0
0 0 0
0 0 0
0 0 0
0 0 0
0 0 0
0 0 0
0 0 0
0 0 0
0 0 0
0 0 0
0 0 0
0 0 0
0 0 0
0 0 0
0 0 0
0 0 0
0 0 0
0 0 0
0 0 0
0 0 0
0 0 0
0 0 0
0 0 0
0 0 0
0 0 0
0 0 0
0 0 0
0 0 0
0 0 0
0 0 0
0 0 0
0 0 0
0 0 0
0 0 0
0 0 0
0 0 0
0 0 0
0 0 0
0 0 0
0 0 0
0 0 0
0 0 0
0 0 0
0 0 0
0 0 0
0 0 0
0 0 0
0 0 0
0 0 0
0 0 0
0 0 0
0 0 0
0 0 0
0 0 0
0 0 0
0 0 0
0 0 0
0 0 0
0 0 0
0 0 0
0 0 0
0 0 0
0 0 0
0 0 0
0 0 0
0 0 0
0 0 0
0 0 0
0 0 0
0 0 0
0 0 0
0 0 0
0 0 0
0 0 0
0 0 0
0 0 0
0 0 0
0 0 0
0 0 0
0 0 0
0 0 0
0 0 0
0 0 0
0 0 0
0 0 0
0 0 0
0 0 0
0 0 0
0 0 0
0 0 0
0 0 0
0 0 0
0 0 0
0 0 0
0 0 0
0 0 0
0 0 0
0 0 0
0 0 0
0 0 0
0 0 0
0 0 0
0 0 0
0 0 0
0 0 0
0 0 0
0 0 0
0 0 0
0 0 0
0 0 0
0 0 0
0 0 0
0 0 0
0 0 0
0 0 0
0 0 0
0 0 0
0 0 0
0 0 0
0 0 0
0 0 0
0 0 0
0 0 0
0 0 0
0 0 0
0 0 0
0 0 0
0 0 0
0 0 0
0 0 0
0 0 0
0 0 0
0 0 0
0 0 0
0 0 0
0 0 0
0 0 0
0 0 0
0 0 0
0 0 0
0 0 0
0 0 0
0 0 0
0 0 0
0 0 0
0 0 0
0 0 0
0 0 0
0 0 0
0 0 0
0 0 0
0 0 0
0 0 0
0 0 0
0 0 0
0 0 0
0 0 0
0 0 0
0 0 0
0 0 0
0 0 0
0 0 0
0 0 0
0 0 0
0 0 0
0 0 0
0 0 0
0 0 0
0 0 0
0 0 0
0 0 0
0 0 0
0 0 0
0 0 0
0 0 0
0 0 0
0 0 0
0 0 0
0 0 0
0 0 0
0 0 0
0 0 0
0 0 0
0 0 0
0 0 0
0 0 0
0 0 0
0 0 0
0 0 0
0 0 0
0 0 0
0 0 0
0 0 0
0 0 0
0 0 0
0 0 0
0 0 0
0 0 0
0 0 0
0 0 0
0 0 0
0 0 0
0 0 0
0 0 0
0 0 0
0 0 0
0 0 0
0 0 0
0 0 0
0 0 0
0 0 0
0 0 0
0 0 0
0 0 0
0 0 0
0 0 0
0 0 0
0 0 0
0 0 0
0 0 0
0 0 0
0 0 0
0 0 0
0 0 0
0 0 0
0 0 0
0 0 0
0 0 0
0 0 0
0 0 0
0 0 0
0 0 0
0 0 0
0 0 0
0 0 0
0 0 0
0 0 0
0 0 0
0 0 0
0 0 0
0 0 0
0 0 0
0 0 0
0 0 0
0 0 0
0 0 0
0 0 0
0 0 0
0 0 0
0 0 0
0 0 0
0 0 0
0 0 0
0 0 0
0 0 0
0 0 0
0 0 0
0 0 0
0 0 0
0 0 0
0 0 0
0 0 0
0 0 0
0 0 0
0 0 0
0 0 0
0 0 0
0 0 0
0 0 0
0 0 0
0 0 0
0 0 0
0 0 0
0 0 0
0 0 0
0 0 0
0 0 0
0 0 0
0 0 0
0 0 0
0 0 0
0 0 0
0 0 0
0 0 0
0 0 0
0 0 0
0 0 0
0 0 0
0 0 0
0 0 0
0 0 0
0 0 0
0 0 0
0 0 0
0 0 0
0 0 0
0 0 0
0 0 0
0 0 0
0 0 0
0 0 0
0 0 0
0 0 0
0 0 0
0 0 0
0 0 0
0 0 0
0 0 0
0 0 0
0 0 0
0 0 0
0 0 0
0 0 0
0 0 0
0 0 0
0 0 0
0 0 0
0 0 0
0 0 0
0 0 0
0 0 0
0 0 0
0 0 0
0 0 0
0 0 0
0 0 0
0 0 0
0 0 0
0 0 0
0 0 0
0 0 0
0 0 0
0 0 0
0 0 0
0 0 0
0 0 0
0 0 0
0 0 0
0 0 0
0 0 0
0 0 0
0 0 0
0 0 0
0 0 0
0 0 0
0 0 0
0 0 0
0 0 0
0 0 0
0 0 0
0 0 0
0 0 0
0 0 0
0 0 0
0 0 0
0 0 0
0 0 0
0 0 0
0 0 0
0 0 0
0 0 0
0 0 0
0 0 0
0 0 0
0 0 0
0 0 0
0 0 0
0 0 0
0 0 0
0 0 0
0 0 0
0 0 0
0 0 0
0 0 0
0 0 0
0 0 0
0 0 0
0 0 0
0 0 0
0 0 0
0 0 0
0 0 0
0 0 0
0 0 0
0 0 0
0 0 0
0 0 0
0 0 0
0 0 0
0 0 0
0 0 0
0 0 0
0 0 0
0 0 0
0 0 0
0 0 0
0 0 0
0 0 0
0 0 0
0 0 0
0 0 0
0 0 0
0 0 0
0 0 0
0 0 0
0 0 0
0 0 0
0 0 0
0 0 0
0 0 0
0 0 0
0 0 0
0 0 0
0 0 0
0 0 0
0 0 0
0 0 0
0 0 0
0 0 0
0 0 0
0 0 0
0 0 0
0 0 0
0 0 0
0 0 0
0 0 0
0 0 0
0 0 0
0 0 0
0 0 0
0 0 0
0 0 0
0 0 0
0 0 0
0 0 0
0 0 0
0 0 0
0 0 0
0 0 0
0 0 0
0 0 0
0 0 0
0 0 0
0 0 0
0 0 0
0 0 0
0 0 0
0 0 0
0 0 0
0 0 0
0 0 0
0 0 0
0 0 0
0 0 0
0 0 0
0 0 0
0 0 0
0 0 0
0 0 0
0 0 0
-0.000134329 -6.08832e-06 0.000166871
-0.000678822 -0.00014073 1.79461e-05
-0.00114488 -1.97762e-05 0.000168424
-0.00199897 -0.000112312 6.57623e-05
-0.00266751 -3.80831e-05 0.000146293
-0.00352988 -9.10204e-05 7.80285e-05
-0.00419178 -4.14742e-05 0.000118583
-0.00489148 -6.96394e-05 6.90954e-05
-0.00540289 -3.28247e-05 8.71187e-05
-0.00583758 -4.841e-05 4.49327e-05
-0.00610018 -1.57563e-05 5.27798e-05
-0.00619582 -2.85396e-05 9.26737e-06
-0.00614493 7.17149e-06 1.78944e-05
-0.00585276 -1.228e-05 -3.46808e-05
-0.0054698 3.4208e-05 -1.26231e-05
-0.00479058 -3.20463e-06 -8.30037e-05
-0.00413586 6.42006e-05 -3.00671e-05
-0.00316489 -6.08874e-06 -0.000130097
-0.00241517 9.6537e-05 -2.22426e-05
-0.00139406 -2.45461e-05 -0.000168357
-0.000840658 0.000138622 3.01739e-05
-0.000179809 -3.69631e-05 -0.000172342
0 0 0
0 0 0
-0.000154823 -9.63576e-05 0.000139511
-0.00105777 -0.000241559 -1.01369e-05
-0.00186576 -0.000125493 0.000153752
-0.00321332 -0.000145113 5.78535e-05
-0.00434891 -7.34977e-05 0.000138933
-0.00570583 -8.57494e-05 7.53943e-05
-0.00680484 -5.53054e-05 0.000112428
-0.0079035 -7.37958e-05 6.42563e-05
-0.00873466 -6.87952e-05 7.67747e-05
-0.00941378 -9.50429e-05 3.32018e-05
-0.00982589 -0.000104438 3.39212e-05
-0.0099711 -0.000137927 -1.24767e-05
-0.00986556 -0.00015146 -1.22959e-05
-0.00940376 -0.000188966 -6.74878e-05
-0.00875138 -0.00019196 -5.42214e-05
-0.00768735 -0.000225362 -0.000124126
-0.00658124 -0.000194476 -7.76974e-05
-0.00506632 -0.000214104 -0.000171109
-0.00379099 -0.000120101 -6.25409e-05
-0.00219771 -0.000131476 -0.000196777
-0.00125383 4.15871e-05 2.10196e-05
-0.000168672 -6.20737e-05 -0.000178502
0 0 0
0 0 0
-0.00015632 -0.000119974 0.000186326
-0.00129522 -0.000294063 1.43966e-05
-0.00233656 -0.000179954 0.000205865
-0.00400927 -0.000212395 9.14259e-05
-0.00542827 -0.000125069 0.000183588
-0.00709222 -0.000142537 0.000106655
-0.00844367 -9.99687e-05 0.000148066
-0.00977879 -0.00012245 9.02008e-05
-0.0107879 -0.000110471 0.000104298
-0.0116039 -0.00014121 5.31644e-05
-0.0120938 -0.000146719 5.46851e-05
-0.0122581 -0.000185881 1.24545e-06
-0.0121154 -0.000195954 2.748e-06
-0.0115454 -0.000240398 -6.09281e-05
-0.0107388 -0.000236772 -4.47259e-05
-0.0094433 -0.000277781 -0.000126816
-0.00808418 -0.000233065 -7.39475e-05
-0.00624349 -0.000260856 -0.000185569
-0.00466715 -0.000145412 -6.31392e-05
-0.0027235 -0.000167951 -0.000223006
-0.00152674 1.77391e-05 2.55834e-05
-0.000198899 -8.6284e-05 -0.000203055
0 0 0
0 0 0
-0.000176483 -0.000185513 0.000172663
-0.0014321 -0.000353763 -7.90321e-06
-0.00260624 -0.000273293 0.000196268
-0.00447544 -0.000287923 7.86842e-05
-0.00607261 -0.000209194 0.00017584
-0.00792738 -0.000209236 9.77716e-05
-0.00943941 -0.000170386 0.00014051
-0.0109208 -0.000183036 8.15052e-05
-0.0120416 -0.000176816 9.48732e-05
-0.0129411 -0.00020452 4.19609e-05
-0.0134776 -0.000218856 4.15061e-05
-0.0136517 -0.000258117 -1.42974e-05
-0.013481 -0.000278848 -1.52299e-05
-0.0128406 -0.00032119 -8.14681e-05
-0.0119295 -0.000327578 -6.69805e-05
-0.0104854 -0.000357989 -0.000150984
-0.00895784 -0.000321174 -9.69793e-05
-0.00691026 -0.00032548 -0.00020947
-0.00514178 -0.000220279 -7.9889e-05
-0.00298489 -0.00020938 -0.00024157
-0.0016528 -4.97623e-05 2.49267e-05
-0.000201734 -0.000103364 -0.000212156
0 0 0
0 0 0
-0.00017551 -0.000183563 0.00019562
-0.00150812 -0.00034589 -3.06659e-07
-0.00275545 -0.000289476 0.00022039
-0.00474961 -0.000310737 9.23066e-05
-0.00644868 -0.000240465 0.0001969
-0.00842182 -0.000241314 0.000111619
-0.0100245 -0.000201321 0.000157407
-0.0115936 -0.000210511 9.31894e-05
-0.0127763 -0.000198973 0.000107595
-0.0137238 -0.000220838 5.05098e-05
-0.0142851 -0.000227818 5.03841e-05
-0.0144627 -0.000259892 -9.40535e-06
-0.0142757 -0.000272344 -9.85461e-06
-0.0135913 -0.000307266 -8.08687e-05
-0.0126218 -0.000306304 -6.48671e-05
-0.0110871 -0.000331622 -0.00015541
-0.00946582 -0.000292891 -9.73982e-05
-0.00729247 -0.000298406 -0.000219202
-0.00541771 -0.00020433 -8.06371e-05
-0.00313444 -0.000201332 -0.00025531
-0.00172875 -6.92232e-05 2.90136e-05
-0.000216046 -0.000107223 -0.00022476
0 0 0
0 0 0
-0.000187203 -0.000201026 0.000188037
-0.00154608 -0.000344683 -1.48059e-05
-0.00282842 -0.000314921 0.000213643
-0.00488831 -0.000332122 8.14364e-05
-0.00664362 -0.000276064 0.000190436
-0.00868547 -0.000271458 0.000103031
-0.0103416 -0.000235528 0.000151128
-0.0119635 -0.000237756 8.56488e-05
-0.0131837 -0.000225359 0.000101069
-0.0141608 -0.000239602 4.28846e-05
-0.0147375 -0.000243619 4.30639e-05
-0.0149175 -0.000267237 -1.79859e-05
-0.0147199 -0.000276196 -1.82772e-05
-0.0140078 -0.000301466 -9.08418e-05
-0.013001 -0.000298676 -7.40041e-05
-0.011409 -0.000314011 -0.000166398
-0.00972931 -0.00027978 -0.000105664
-0.00747912 -0.00027734 -0.000229917
-0.00554351 -0.000200832 -8.52625e-05
-0.0031908 -0.00019194 -0.000264122
-0.00175368 -9.05749e-05 3.09064e-05
-0.000219189 -0.000104954 -0.000230362
0 0 0
0 0 0
-0.000185257 -0.000172059 0.000198774
-0.00156168 -0.000294478 -1.23719e-05
-0.00285797 -0.000279603 0.000224341
-0.00495627 -0.00029794 8.64158e-05
-0.00673985 -0.000254561 0.000199773
-0.00882213 -0.000251287 0.000108498
-0.0105064 -0.000220052 0.000158675
-0.0121594 -0.00021998 9.04633e-05
-0.0133998 -0.000206236 0.000106794
-0.0143942 -0.000214876 4.64556e-05
-0.0149794 -0.000213868 4.70932e-05
-0.0151606 -0.000229702 -1.60137e-05
-0.0149578 -0.000232439 -1.57868e-05
-0.0142293 -0.000249717 -9.08217e-05
-0.0132028 -0.000243276 -7.28404e-05
-0.0115771 -0.000253782 -0.000168633
-0.00986671 -0.000224024 -0.000105323
-0.00757213 -0.000223251 -0.000234427
-0.00560614 -0.000164266 -8.46704e-05
-0.00321633 -0.000161196 -0.000270265
-0.00176608 -8.64441e-05 3.33678e-05
-0.000225405 -9.29468e-05 -0.000236379
0 0 0
0 0 0
-0.0001911 -0.000154696 0.000194538
-0.00156717 -0.000251733 -2.03259e-05
-0.00286732 -0.000248711 0.000220129
-0.00498157 -0.000263318 7.95419e-05
-0.00677779 -0.000232187 0.000195602
-0.00888112 -0.00022794 0.000102796
-0.0105803 -0.000202803 0.000154733
-0.012251 -0.000199973 8.56694e-05
-0.0135032 -0.000187137 0.000103093
-0.0145081 -0.000190827 4.21611e-05
-0.0150988 -0.000187559 4.35318e-05
-0.015281 -0.000196748 -2.01941e-05
-0.0150754 -0.000196329 -1.92696e-05
-0.014337 -0.000206458 -9.51451e-05
-0.0132989 -0.000199199 -7.60483e-05
-0.0116529 -0.000204195 -0.000173074
-0.00992505 -0.000180312 -0.000107657
-0.00760528 -0.000177602 -0.000238664
-0.0056245 -0.000134423 -8.52642e-05
-0.0032174 -0.000131028 -0.000273873
-0.00176502 -7.84572e-05 3.49809e-05
-0.000227371 -7.72085e-05 -0.000239084
0 0 0
0 0 0
-0.000189678 -0.000109277 0.000199168
-0.00156708 -0.000179525 -1.9467e-05
-0.00286646 -0.000180185 0.000224602
-0.00498941 -0.000192022 8.1283e-05
-0.00679064 -0.000171086 0.000199528
-0.00890574 -0.000168472 0.000104829
-0.0106121 -0.000150322 0.000157946
-0.012293 -0.000147814 8.75445e-05
-0.0135513 -0.00013759 0.000105569
-0.0145623 -0.000139176 4.35877e-05
-0.0151561 -0.000135351 4.53185e-05
-0.0153392 -0.000140591 -1.94096e-05
-0.0151324 -0.000138666 -1.80957e-05
-0.0143885 -0.000144664 -9.51752e-05
-0.0133447 -0.00013822 -7.53593e-05
-0.0116873 -0.00014126 -0.000174044
-0.00995102 -0.000124197 -0.000107206
-0.00761757 -0.000123112 -0.000240572
-0.00563062 -9.43787e-05 -8.46528e-05
-0.00321542 -9.37046e-05 -0.000276462
-0.00176375 -5.93626e-05 3.61119e-05
-0.000229909 -5.70449e-05 -0.000241792
0 0 0
0 0 0
-0.000192045 -7.33984e-05 0.000197258
-0.0015662 -0.000115891 -2.28617e-05
-0.00286405 -0.000118555 0.000222639
-0.00498917 -0.000125538 7.81296e-05
-0.00679174 -0.000113668 0.000197587
-0.00891206 -0.000111534 0.000102153
-0.0106217 -0.000100366 0.000156149
-0.0123078 -9.79716e-05 8.53373e-05
-0.0135693 -9.11216e-05 0.000103973
-0.0145838 -9.10588e-05 4.17278e-05
-0.0151795 -8.7904e-05 4.39228e-05
-0.0153631 -8.99874e-05 -2.10678e-05
-0.0151558 -8.79536e-05 -1.92946e-05
-0.0144089 -9.04649e-05 -9.67497e-05
-0.0133621 -8.5843e-05 -7.62876e-05
-0.0116985 -8.6664e-05 -0.000175571
-0.00995803 -7.61143e-05 -0.000107681
-0.00761768 -7.47665e-05 -0.000242002
-0.00562847 -5.80662e-05 -8.44649e-05
-0.00321043 -5.72299e-05 -0.000277708
-0.00176069 -3.77843e-05 3.69241e-05
-0.000230814 -3.49995e-05 -0.00024283
0 0 0
0 0 0
-0.000191551 -2.07668e-05 0.000198541
-0.00156519 -3.49084e-05 -2.26345e-05
-0.00286187 -3.54872e-05 0.000223865
-0.00498815 -3.81058e-05 7.85609e-05
-0.006791 -3.42066e-05 0.000198672
-0.00891368 -3.37935e-05 0.000102673
-0.0106245 -3.02106e-05 0.000157045
-0.0123131 -2.9675e-05 8.58298e-05
-0.0135759 -2.75245e-05 0.000104671
-0.014592 -2.77133e-05 4.21082e-05
-0.0151884 -2.6761e-05 4.44341e-05
-0.0153723 -2.76301e-05 -2.086e-05
-0.0151649 -2.70336e-05 -1.89466e-05
-0.0144167 -2.80662e-05 -9.67659e-05
-0.0133687 -2.66443e-05 -7.60618e-05
-0.0117024 -2.72114e-05 -0.000175846
-0.00996044 -2.3916e-05 -0.000107506
-0.00761718 -2.38985e-05 -0.000242534
-0.00562731 -1.86636e-05 -8.42457e-05
-0.00320822 -1.88527e-05 -0.000278428
-0.00175951 -1.26439e-05 3.72371e-05
-0.000231496 -1.18709e-05 -0.000243608
0 0 0
0 0 0
-0.000191551 2.07668e-05 0.000198541
-0.00156519 3.49084e-05 -2.26345e-05
-0.00286187 3.54872e-05 0.000223865
-0.00498815 3.81058e-05 7.85609e-05
-0.006791 3.42066e-05 0.000198672
-0.00891368 3.37935e-05 0.000102673
-0.0106245 3.02106e-05 0.000157045
-0.0123131 2.9675e-05 8.58298e-05
-0.0135759 2.75245e-05 0.000104671
-0.014592 2.77133e-05 4.21082e-05
-0.0151884 2.6761e-05 4.44341e-05
-0.0153723 2.76301e-05 -2.086e-05
-0.0151649 2.70336e-05 -1.89466e-05
-0.0144167 2.80662e-05 -9.67659e-05
-0.0133687 2.66443e-05 -7.60618e-05
-0.0117024 2.72114e-05 -0.000175846
-0.00996044 2.3916e-05 -0.000107506
-0.00761718 2.38985e-05 -0.000242534
-0.00562731 1.86636e-05 -8.42457e-05
-0.00320822 1.88527e-05 -0.000278428
-0.00175951 1.26439e-05 3.72371e-05
-0.000231496 1.18709e-05 -0.000243608
0 0 0
0 0 0
-0.000192045 7.33984e-05 0.000197258
-0.0015662 0.000115891 -2.28617e-05
-0.00286405 0.000118555 0.000222639
-0.00498917 0.000125538 7.81296e-05
-0.00679174 0.000113668 0.000197587
-0.00891206 0.000111534 0.000102153
-0.0106217 0.000100366 0.000156149
-0.0123078 9.79716e-05 8.53373e-05
-0.0135693 9.11216e-05 0.000103973
-0.0145838 9.10588e-05 4.17278e-05
-0.0151795 8.7904e-05 4.39228e-05
-0.0153631 8.99874e-05 -2.10678e-05
-0.0151558 8.79536e-05 -1.92946e-05
-0.0144089 9.04649e-05 -9.67497e-05
-0.0133621 8.5843e-05 -7.62876e-05
-0.0116985 8.6664e-05 -0.000175571
-0.00995803 7.61143e-05 -0.000107681
-0.00761768 7.47665e-05 -0.000242002
-0.00562847 5.80662e-05 -8.44649e-05
-0.00321043 5.72299e-05 -0.000277708
-0.00176069 3.77843e-05 3.69241e-05
-0.000230814 3.49995e-05 -0.00024283
0 0 0
0 0 0
-0.000189678 0.000109277 0.000199168
-0.00156708 0.000179525 -1.9467e-05
-0.00286646 0.000180185 0.000224602
-0.00498941 0.000192022 8.1283e-05
-0.00679064 0.000171086 0.000199528
-0.00890574 0.000168472 0.000104829
-0.0106121 0.000150322 0.000157946
-0.012293 0.000147814 8.75445e-05
-0.0135513 0.00013759 0.000105569
-0.0145623 0.000139176 4.35877e-05
-0.0151561 0.000135351 4.53185e-05
-0.0153392 0.000140591 -1.94096e-05
-0.0151324 0.000138666 -1.80957e-05
-0.0143885 0.000144664 -9.51752e-05
-0.0133447 0.00013822 -7.53593e-05
-0.0116873 0.00014126 -0.000174044
-0.00995102 0.000124197 -0.000107206
-0.00761757 0.000123112 -0.000240572
-0.00563062 9.43787e-05 -8.46528e-05
-0.00321542 9.37046e-05 -0.000276462
-0.00176375 5.93626e-05 3.61119e-05
-0.000229909 5.70449e-05 -0.000241792
0 0 0
0 0 0
-0.0001911 0.000154696 0.000194538
-0.00156717 0.000251733 -2.03259e-05
-0.00286732 0.000248711 0.000220129
-0.00498157 0.000263318 7.95419e-05
-0.00677779 0.000232187 0.000195602
-0.00888112 0.00022794 0.000102796
-0.0105803 0.000202803 0.000154733
-0.012251 0.000199973 8.56694e-05
-0.0135032 0.000187137 0.000103093
-0.0145081 0.000190827 4.21611e-05
-0.0150988 0.000187559 4.35318e-05
-0.015281 0.000196748 -2.01941e-05
-0.0150754 0.000196329 -1.92696e-05
-0.014337 0.000206458 -9.51451e-05
-0.0132989 0.000199199 -7.60483e-05
-0.0116529 0.000204195 -0.000173074
-0.00992505 0.000180312 -0.000107657
-0.00760528 0.000177602 -0.000238664
-0.0056245 0.000134423 -8.52642e-05
-0.0032174 0.000131028 -0.000273873
-0.00176502 7.84572e-05 3.49809e-05
-0.000227371 7.72085e-05 -0.000239084
0 0 0
0 0 0
-0.000185257 0.000172059 0.000198774
-0.00156168 0.000294478 -1.23719e-05
-0.00285797 0.000279603 0.000224341
-0.00495627 0.00029794 8.64158e-05
-0.00673985 0.000254561 0.000199773
-0.00882213 0.000251287 0.000108498
-0.0105064 0.000220052 0.000158675
-0.0121594 0.00021998 9.04633e-05
-0.0133998 0.000206236 0.000106794
-0.0143942 0.000214876 4.64556e-05
-0.0149794 0.000213868 4.70932e-05
-0.0151606 0.000229702 -1.60137e-05
-0.0149578 0.000232439 -1.57868e-05
-0.0142293 0.000249717 -9.08217e-05
-0.0132028 0.000243276 -7.28404e-05
-0.0115771 0.000253782 -0.000168633
-0.00986671 0.000224024 -0.000105323
-0.00757213 0.000223251 -0.000234427
-0.00560614 0.000164266 -8.46704e-05
-0.00321633 0.000161196 -0.000270265
-0.00176608 8.64441e-05 3.33678e-05
-0.000225405 9.29468e-05 -0.000236379
0 0 0
0 0 0
-0.000187203 0.000201026 0.000188037
-0.00154608 0.000344683 -1.48059e-05
-0.00282842 0.000314921 0.000213643
-0.00488831 0.000332122 8.14364e-05
-0.00664362 0.000276064 0.000190436
-0.00868547 0.000271458 0.000103031
-0.0103416 0.000235528 0.000151128
-0.0119635 0.000237756 8.56488e-05
-0.0131837 0.000225359 0.000101069
-0.0141608 0.000239602 4.28846e-05
-0.0147375 0.000243619 4.30639e-05
-0.0149175 0.000267237 -1.79859e-05
-0.0147199 0.000276196 -1.82772e-05
-0.0140078 0.000301466 -9.08418e-05
-0.013001 0.000298676 -7.40041e-05
-0.011409 0.000314011 -0.000166398
-0.00972931 0.00027978 -0.000105664
-0.00747912 0.00027734 -0.000229917
-0.00554351 0.000200832 -8.52625e-05
-0.0031908 0.00019194 -0.000264122
-0.00175368 9.05749e-05 3.09064e-05
-0.000219189 0.000104954 -0.000230362
0 0 0
0 0 0
-0.00017551 0.000183563 0.00019562
-0.00150812 0.00034589 -3.06659e-07
-0.00275545 0.000289476 0.00022039
-0.00474961 0.000310737 9.23066e-05
-0.00644868 0.000240465 0.0001969
-0.00842182 0.000241314 0.000111619
-0.0100245 0.000201321 0.000157407
-0.0115936 0.000210511 9.31894e-05
-0.0127763 0.000198973 0.000107595
-0.0137238 0.000220838 5.05098e-05
-0.0142851 0.000227818 5.03841e-05
-0.0144627 0.000259892 -9.40535e-06
-0.0142757 0.000272344 -9.85461e-06
-0.0135913 0.000307266 -8.08687e-05
-0.0126218 0.000306304 -6.48671e-05
-0.0110871 0.000331622 -0.00015541
-0.00946582 0.000292891 -9.73982e-05
-0.00729247 0.000298406 -0.000219202
-0.00541771 0.00020433 -8.06371e-05
-0.00313444 0.000201332 -0.00025531
-0.00172875 6.92232e-05 2.90136e-05
-0.000216046 0.000107223 -0.00022476
0 0 0
0 0 0
-0.000176483 0.000185513 0.000172663
-0.0014321 0.000353763 -7.90321e-06
-0.00260624 0.000273293 0.000196268
-0.00447544 0.000287923 7.86842e-05
-0.00607261 0.000209194 0.00017584
-0.00792738 0.000209236 9.77716e-05
-0.00943941 0.000170386 0.00014051
-0.0109208 0.000183036 8.15052e-05
-0.0120416 0.000176816 9.48732e-05
-0.0129411 0.00020452 4.19609e-05
-0.0134776 0.000218856 4.15061e-05
-0.0136517 0.000258117 -1.42974e-05
-0.013481 0.000278848 -1.52299e-05
-0.0128406 0.00032119 -8.14681e-05
-0.0119295 0.000327578 -6.69805e-05
-0.0104854 0.000357989 -0.000150984
-0.00895784 0.000321174 -9.69793e-05
-0.00691026 0.00032548 -0.00020947
-0.00514178 0.000220279 -7.9889e-05
-0.00298489 0.00020938 -0.00024157
-0.0016528 4.97623e-05 2.49267e-05
-0.000201734 0.000103364 -0.000212156
0 0 0
0 0 0
-0.00015632 0.000119974 0.000186326
-0.00129522 0.000294063 1.43966e-05
-0.00233656 0.000179954 0.000205865
-0.00400927 0.000212395 9.14259e-05
-0.00542827 0.000125069 0.000183588
-0.00709222 0.000142537 0.000106655
-0.00844367 9.99687e-05 0.000148066
-0.00977879 0.00012245 9.02008e-05
-0.0107879 0.000110471 0.000104298
-0.0116039 0.00014121 5.31644e-05
-0.0120938 0.000146719 5.46851e-05
-0.0122581 0.000185881 1.24545e-06
-0.0121154 0.000195954 2.748e-06
-0.0115454 0.000240398 -6.09281e-05
-0.0107388 0.000236772 -4.47259e-05
-0.0094433 0.000277781 -0.000126816
-0.00808418 0.000233065 -7.39475e-05
-0.00624349 0.000260856 -0.000185569
-0.00466715 0.000145412 -6.31392e-05
-0.0027235 0.000167951 -0.000223006
-0.00152674 -1.77391e-05 2.55834e-05
-0.000198899 8.6284e-05 -0.000203055
0 0 0
0 0 0
-0.000154823 9.63576e-05 0.000139511
-0.00105777 0.000241559 -1.01369e-05
-0.00186576 0.000125493 0.000153752
-0.00321332 0.000145113 5.78535e-05
-0.00434891 7.34977e-05 0.000138933
-0.00570583 8.57494e-05 7.53943e-05
-0.00680484 5.53054e-05 0.000112428
-0.0079035 7.37958e-05 6.42563e-05
-0.00873466 6.87952e-05 7.67747e-05
-0.00941378 9.50429e-05 3.32018e-05
-0.00982589 0.000104438 3.39212e-05
-0.0099711 0.000137927 -1.24767e-05
-0.00986556 0.00015146 -1.22959e-05
-0.00940376 0.000188966 -6.74878e-05
-0.00875138 0.00019196 -5.42214e-05
-0.00768735 0.000225362 -0.000124126
-0.00658124 0.000194476 -7.76974e-05
-0.00506632 0.000214104 -0.000171109
-0.00379099 0.000120101 -6.25409e-05
-0.00219771 0.000131476 -0.000196777
-0.00125383 -4.15871e-05 2.10196e-05
-0.000168672 6.20737e-05 -0.000178502
0 0 0
0 0 0
-0.000134329 6.08832e-06 0.000166871
-0.000678822 0.00014073 1.79461e-05
-0.00114488 1.97762e-05 0.000168424
-0.00199897 0.000112312 6.57623e-05
-0.00266751 3.80831e-05 0.000146293
-0.00352988 9.10204e-05 7.80285e-05
-0.00419178 4.14742e-05 0.000118583
-0.00489148 6.96394e-05 6.90954e-05
-0.00540289 3.28247e-05 8.71187e-05
-0.00583758 4.841e-05 4.49327e-05
-0.00610018 1.57563e-05 5.27798e-05
-0.00619582 2.85396e-05 9.26737e-06
-0.00614493 -7.17149e-06 1.78944e-05
-0.00585276 1.228e-05 -3.46808e-05
-0.0054698 -3.4208e-05 -1.26231e-05
-0.00479058 3.20463e-06 -8.30037e-05
-0.00413586 -6.42006e-05 -3.00671e-05
-0.00316489 6.08874e-06 -0.000130097
-0.00241517 -9.6537e-05 -2.22426e-05
-0.00139406 2.45461e-05 -0.000168357
-0.000840658 -0.000138622 3.01739e-05
-0.000179809 3.69631e-05 -0.000172342
0 0 0
0 0 0
0 0 0
0 0 0
0 0 0
0 0 0
0 0 0
0 0 0
0 0 0
0 0 0
0 0 0
0 0 0
0 0 0
0 0 0
0 0 0
0 0 0
0 0 0
0 0 0
0 0 0
0 0 0
0 0 0
0 0 0
0 0 0
0 0 0
0 0 0
0 0 0
0 0 0
0 0 0
0 0 0
0 0 0
0 0 0
0 0 0
0 0 0
0 0 0
0 0 0
0 0 0
0 0 0
0 0 0
0 0 0
0 0 0
0 0 0
0 0 0
0 0 0
0 0 0
0 0 0
0 0 0
0 0 0
0 0 0
0 0 0
0 0 0
-3.08908e-05 0.000104219 0.000822348
-0.00101006 -4.12072e-05 0.00104867
-0.00183945 0.000113545 0.00143736
-0.00326155 2.25565e-05 0.00146234
-0.00444053 0.000101956 0.00154635
-0.00585687 4.32654e-05 0.00143247
-0.00699741 8.12606e-05 0.00134791
-0.00814136 3.73289e-05 0.00115211
-0.00900689 5.20427e-05 0.000969567
-0.00971801 1.2878e-05 0.000714502
-0.0101546 1.69096e-05 0.000467473
-0.0103159 -2.40115e-05 0.00016383
-0.0102204 -1.9523e-05 -0.000118675
-0.00975246 -6.76063e-05 -0.000451538
-0.00908943 -4.97767e-05 -0.000721216
-0.0079888 -0.000110695 -0.00104103
-0.00684779 -6.12731e-05 -0.00121189
-0.00526156 -0.000144255 -0.00144557
-0.00393391 -3.81557e-05 -0.00138439
-0.00224244 -0.00016237 -0.00143932
-0.00126064 4.02638e-05 -0.000986811
-8.09485e-05 -0.000152206 -0.000840684
0 0 0
0 0 0
-5.59039e-05 -7.76366e-05 0.00117071
-0.00167265 -0.000269587 0.00162412
-0.00313973 -9.56326e-05 0.00223862
-0.00544181 -9.96202e-05 0.0023481
-0.00746419 6.10546e-07 0.00246255
-0.00975562 -1.08556e-05 0.00230412
-0.0116735 1.6927e-05 0.00214002
-0.0135191 -2.04823e-05 0.00182568
-0.0149482 -3.94594e-05 0.00150204
-0.016087 -9.94761e-05 0.00108177
-0.0167849 -0.000146255 0.000653491
-0.0170319 -0.000222612 0.000153067
-0.0168383 -0.000278944 -0.000333584
-0.0160724 -0.000360789 -0.000874679
-0.0149331 -0.000400304 -0.00134187
-0.0131573 -0.00046612 -0.00184302
-0.0112152 -0.000446108 -0.00214957
-0.00867135 -0.000469597 -0.00247289
-0.00639882 -0.000338138 -0.00239803
-0.00369521 -0.000321158 -0.00237054
-0.00198782 -5.46339e-05 -0.0016573
-6.77736e-05 -0.000167836 -0.00126397
0 0 0
0 0 0
-4.1283e-05 -0.000122755 0.00142972
-0.00210291 -0.000361947 0.00203302
-0.00401456 -0.000196893 0.00280999
-0.00691278 -0.00021312 0.00297228
-0.0094768 -9.23403e-05 0.00310877
-0.0123315 -0.000105084 0.00291056
-0.0147285 -6.20742e-05 0.00268748
-0.0170082 -0.000102355 0.00228202
-0.0187724 -0.000114797 0.00185635
-0.020163 -0.000181144 0.00131519
-0.0210058 -0.000226983 0.000759538
-0.0212889 -0.0003125 0.000119625
-0.0210228 -0.000369051 -0.000506711
-0.0200591 -0.000460948 -0.00119291
-0.0186254 -0.000495575 -0.00179182
-0.0164256 -0.000568897 -0.002419
-0.0139993 -0.000531853 -0.00281136
-0.010858 -0.000558323 -0.00319805
-0.00800705 -0.00039693 -0.00310189
-0.00465885 -0.000383975 -0.00301897
-0.00247082 -9.96314e-05 -0.00211234
-8.22354e-05 -0.000206664 -0.00155137
0 0 0
0 0 0
-5.88991e-05 -0.000247335 0.00151142
-0.00236077 -0.00049483 0.00218848
-0.00453653 -0.000381664 0.0030657
-0.00780415 -0.000382412 0.00326788
-0.0107117 -0.000269079 0.0034225
-0.0139213 -0.000258716 0.00320693
-0.0166227 -0.000212525 0.00295025
-0.0191732 -0.000235498 0.00249364
-0.0211469 -0.000245993 0.0020068
-0.0226913 -0.000301908 0.00139476
-0.0236203 -0.000349056 0.000761537
-0.0239208 -0.000427438 3.86778e-05
-0.0236009 -0.000487073 -0.000673248
-0.0225072 -0.000569051 -0.00144501
-0.0208768 -0.00060534 -0.00212363
-0.0184035 -0.000659135 -0.00282064
-0.0156589 -0.000621437 -0.00326019
-0.012136 -0.000615582 -0.00367019
-0.00891625 -0.000460016 -0.0035478
-0.00517117 -0.000408864 -0.00340854
-0.00271208 -0.0001596 -0.00236852
-7.78034e-05 -0.000206321 -0.00170021
0 0 0
0 0 0
-5.07482e-05 -0.000259664 0.0015705
-0.00250484 -0.000503321 0.00227605
-0.00483054 -0.000431188 0.00321796
-0.00833118 -0.000445019 0.0034384
-0.0114418 -0.00034503 0.00360789
-0.0148719 -0.000334668 0.0033783
-0.0177519 -0.000284534 0.00310287
-0.0204665 -0.000298867 0.00261251
-0.0225609 -0.000297756 0.00208908
-0.0241953 -0.00034046 0.00143196
-0.0251719 -0.000372204 0.000752109
-0.0254791 -0.000434829 -2.27479e-05
-0.0251258 -0.000477308 -0.000785658
-0.0239499 -0.000542831 -0.00161097
-0.0222035 -0.000563413 -0.00233566
-0.019561 -0.000604881 -0.00307683
-0.0166305 -0.000561046 -0.00354004
-0.0128731 -0.000554992 -0.00396621
-0.00944057 -0.000416178 -0.0038191
-0.0054572 -0.000379735 -0.00364959
-0.0028486 -0.000175194 -0.00251889
-8.15362e-05 -0.000202414 -0.0017971
0 0 0
0 0 0
-6.01887e-05 -0.000293777 0.00156574
-0.00257869 -0.000515339 0.00227531
-0.00497926 -0.000484128 0.00325085
-0.00860586 -0.00049873 0.00348224
-0.0118299 -0.000418814 0.00366306
-0.0153881 -0.000402463 0.00342923
-0.0183726 -0.000354284 0.00314722
-0.0211849 -0.000356147 0.00264213
-0.0233513 -0.00034741 0.00210207
-0.0250399 -0.000373936 0.0014237
-0.0260452 -0.000393409 0.000721177
-0.0263562 -0.000437362 -7.92512e-05
-0.025982 -0.00046608 -0.000867764
-0.0247551 -0.000511507 -0.00171973
-0.0229366 -0.000521332 -0.00246719
-0.0201893 -0.000545045 -0.00322915
-0.0171452 -0.000502411 -0.00370137
-0.0132464 -0.00048732 -0.00413139
-0.00969215 -0.000373594 -0.00396465
-0.00557733 -0.000337671 -0.00377358
-0.00289946 -0.000181747 -0.00258858
-7.89622e-05 -0.000182638 -0.00183981
0 0 0
0 0 0
-5.55981e-05 -0.000257862 0.00156506
-0.0026105 -0.00044837 0.00226788
-0.00504393 -0.000439884 0.00326241
-0.00874168 -0.000459473 0.00349664
-0.0120248 -0.000398472 0.00368574
-0.0156571 -0.000385176 0.0034487
-0.0186986 -0.000342232 0.00316485
-0.0215677 -0.000339294 0.00265155
-0.0237741 -0.000325352 0.00210376
-0.0254943 -0.000340573 0.00141388
-0.0265158 -0.000348418 0.000700113
-0.026829 -0.000377035 -0.000114201
-0.0264435 -0.0003919 -0.000915563
-0.0251864 -0.000421774 -0.00178221
-0.023328 -0.000421957 -0.00254062
-0.020519 -0.0004364 -0.00331441
-0.0174127 -0.000397965 -0.0037892
-0.0134324 -0.000386681 -0.0042224
-0.00981478 -0.000299489 -0.00404159
-0.00562927 -0.000277394 -0.00384149
-0.00292117 -0.000163469 -0.00262389
-7.94715e-05 -0.000157172 -0.00186635
0 0 0
0 0 0
-6.0508e-05 -0.000231805 0.00154635
-0.00262233 -0.000384628 0.00223958
-0.00506683 -0.000391679 0.00324194
-0.00879587 -0.000409124 0.00347744
-0.0121066 -0.00036561 0.00367247
-0.0157775 -0.000352999 0.00343564
-0.0188491 -0.000317438 0.00315355
-0.0217503 -0.000310197 0.00263862
-0.0239793 -0.000294614 0.00208973
-0.0257183 -0.000300482 0.00139663
-0.0267498 -0.000300977 0.000679778
-0.0270648 -0.000316859 -0.000139221
-0.0266733 -0.000322599 -0.000944803
-0.0253987 -0.00033932 -0.00181688
-0.0235173 -0.000334356 -0.00257871
-0.0206722 -0.00034003 -0.0033567
-0.0175313 -0.000308108 -0.00383054
-0.0135056 -0.000296823 -0.00426383
-0.00985657 -0.000233348 -0.00407361
-0.00563764 -0.000216822 -0.00386859
-0.00292126 -0.000137627 -0.00263377
-7.83966e-05 -0.000125194 -0.00187442
0 0 0
0 0 0
-5.83317e-05 -0.000166525 0.0015372
-0.00262374 -0.000277522 0.00222165
-0.0050695 -0.00028771 0.00322785
-0.00881423 -0.000302723 0.00346259
-0.0121368 -0.000273823 0.00366152
-0.0158286 -0.000265294 0.0034246
-0.0189152 -0.000239314 0.00314439
-0.0218343 -0.000232853 0.00262884
-0.0240755 -0.000219583 0.00208028
-0.0258253 -0.000221458 0.00138588
-0.0268626 -0.000218898 0.000668236
-0.0271788 -0.00022744 -0.000152832
-0.0267846 -0.000228384 -0.000959827
-0.0255002 -0.000237654 -0.0018345
-0.0236072 -0.000231584 -0.00259727
-0.0207419 -0.000234213 -0.00337749
-0.0175835 -0.000211066 -0.00384988
-0.0135334 -0.000204133 -0.00428379
-0.00987033 -0.000162097 -0.00408774
-0.00563568 -0.000153362 -0.00388173
-0.00291852 -0.000101978 -0.00263752
-7.83619e-05 -9.13265e-05 -0.00187992
0 0 0
0 0 0
-6.04481e-05 -0.000110349 0.00152595
-0.00262278 -0.000177884 0.00220416
-0.00506691 -0.000187321 0.00321131
-0.00881626 -0.000196553 0.00344563
-0.0121428 -0.000180211 0.00364702
-0.0158439 -0.00017438 0.0034108
-0.0189374 -0.000158211 0.00313261
-0.0218657 -0.000152901 0.00261786
-0.0241132 -0.000143575 0.0020707
-0.025869 -0.000142928 0.00137686
-0.0269095 -0.00013973 0.000660036
-0.0272268 -0.000142952 -0.000160935
-0.0268314 -0.00014181 -0.000967524
-0.0255419 -0.000145483 -0.00184251
-0.0236428 -0.000140405 -0.00260479
-0.0207669 -0.000140428 -0.00338536
-0.0175999 -0.000125979 -0.00385623
-0.0135378 -0.000121069 -0.00429004
-0.00986907 -9.68264e-05 -0.00409063
-0.0056286 -9.15312e-05 -0.00388434
-0.00291363 -6.27289e-05 -0.00263585
-7.80576e-05 -5.47657e-05 -0.00188019
0 0 0
0 0 0
-5.98217e-05 -3.25339e-05 0.00152216