# vtk DataFile Version 3.0
CFD lid driven cavity 3D
ASCII
DATASET STRUCTURED_POINTS
DIMENSIONS 25 25 25
ORIGIN 0 0 0
SPACING 0.0416667 0.0416667 0.0416667
CELL_DATA 13824
VECTORS velocity double
0 0 0
0 0 0
0 0 0
0 0 0
0 0 0
0 0 0
0 0 0
0 0 0
0 0 0
0 0 0
0 0 0
0 0 0
0 0 0
0 0 0
0 0 0
0 0 0
0 0 0
0 0 0
0 0 0
0 0 0
0 0 0
0 0 0
0 0 0
0 0 0
0 0 0
0 0 0
0 0 0
0 0 0
0 0 0
0 0 0
0 0 0
0 0 0
0 0 0
0 0 0
0 0 0
0 0 0
0 0 0
0 0 0
0 0 0
0 0 0
0 0 0
0 0 0
0 0 0
0 0 0
0 0 0
0 0 0
0 0 0
0 0 0
0 0 0
0 0 0
0 0 0
0 0 0
0 0 0
0 0 0
0 0 0
0 0 0
0 0 0
0 0 0
0 0 0
0 0 0
0 0 0
0 0 0
0 0 0
0 0 0
0 0 0
0 0 0
0 0 0
0 0 0
0 0 0
0 0 0
0 0 0
0 0 0
0 0 0
0 0 0
0 0 0
0 0 0
0 0 0
0 0 0
0 0 0
0 0 0
0 0 0
0 0 0
0 0 0
0 0 0
0 0 0
0 0 0
0 0 0
0 0 0
0 0 0
0 0 0
0 0 0
0 0 0
0 0 0
0 0 0
0 0 0
0 0 0
0 0 0
0 0 0
0 0 0
0 0 0
0 0 0
0 0 0
0 0 0
0 0 0
0 0 0
0 0 0
0 0 0
0 0 0
0 0 0
0 0 0
0 0 0
0 0 0
0 0 0
0 0 0
0 0 0
0 0 0
0 0 0
0 0 0
0 0 0
0 0 0
0 0 0
0 0 0
0 0 0
0 0 0
0 0 0
0 0 0
0 0 0
0 0 0
0 0 0
0 0 0
0 0 0
0 0 0
0 0 0
0 0 0
0 0 0
0 0 0
0 0 0
0 0 0
0 0 0
0 0 0
0 0 0
0 0 0
0 0 0
0 0 0
0 0 0
0 0 0
0 0 0
0 0 0
0 0 0
0 0 0
0 0 0
0 0 0
0 0 0
0 0 0
0 0 0
0 0 0
0 0 0
0 0 0
0 0 0
0 0 0
0 0 0
0 0 0
0 0 0
0 0 0
0 0 0
0 0 0
0 0 0
0 0 0
0 0 0
0 0 0
0 0 0
0 0 0
0 0 0
0 0 0
0 0 0
0 0 0
0 0 0
0 0 0
0 0 0
0 0 0
0 0 0
0 0 0
0 0 0
0 0 0
0 0 0
0 0 0
0 0 0
0 0 0
0 0 0
0 0 0
0 0 0
0 0 0
0 0 0
0 0 0
0 0 0
0 0 0
0 0 0
0 0 0
0 0 0
0 0 0
0 0 0
0 0 0
0 0 0
0 0 0
0 0 0
0 0 0
0 0 0
0 0 0
0 0 0
0 0 0
0 0 0
0 0 0
0 0 0
0 0 0
0 0 0
0 0 0
0 0 0
0 0 0
0 0 0
0 0 0
0 0 0
0 0 0
0 0 0
0 0 0
0 0 0
0 0 0
0 0 0
0 0 0
0 0 0
0 0 0
0 0 0
0 0 0
0 0 0
0 0 0
0 0 0
0 0 0
0 0 0
0 0 0
0 0 0
0 0 0
0 0 0
0 0 0
0 0 0
0 0 0
0 0 0
0 0 0
0 0 0
0 0 0
0 0 0
0 0 0
0 0 0
0 0 0
0 0 0
0 0 0
0 0 0
0 0 0
0 0 0
0 0 0
0 0 0
0 0 0
0 0 0
0 0 0
0 0 0
0 0 0
0 0 0
0 0 0
0 0 0
0 0 0
0 0 0
0 0 0
0 0 0
0 0 0
0 0 0
0 0 0
0 0 0
0 0 0
0 0 0
0 0 0
0 0 0
0 0 0
0 0 0
0 0 0
0 0 0
0 0 0
0 0 0
0 0 0
0 0 0
0 0 0
0 0 0
0 0 0
0 0 0
0 0 0
0 0 0
0 0 0
0 0 0
0 0 0
0 0 0
0 0 0
0 0 0
0 0 0
0 0 0
0 0 0
0 0 0
0 0 0
0 0 0
0 0 0
0 0 0
0 0 0
0 0 0
0 0 0
0 0 0
0 0 0
0 0 0
0 0 0
0 0 0
0 0 0
0 0 0
0 0 0
0 0 0
0 0 0
0 0 0
0 0 0
0 0 0
0 0 0
0 0 0
0 0 0
0 0 0
0 0 0
0 0 0
0 0 0
0 0 0
0 0 0
0 0 0
0 0 0
0 0 0
0 0 0
0 0 0
0 0 0
0 0 0
0 0 0
0 0 0
0 0 0
0 0 0
0 0 0
0 0 0
0 0 0
0 0 0
0 0 0
0 0 0
0 0 0
0 0 0
0 0 0
0 0 0
0 0 0
0 0 0
0 0 0
0 0 0
0 0 0
0 0 0
0 0 0
0 0 0
0 0 0
0 0 0
0 0 0
0 0 0
0 0 0
0 0 0
0 0 0
0 0 0
0 0 0
0 0 0
0 0 0
0 0 0
0 0 0
0 0 0
0 0 0
0 0 0
0 0 0
0 0 0
0 0 0
0 0 0
0 0 0
0 0 0
0 0 0
0 0 0
0 0 0
0 0 0
0 0 0
0 0 0
0 0 0
0 0 0
0 0 0
0 0 0
0 0 0
0 0 0
0 0 0
0 0 0
0 0 0
0 0 0
0 0 0
0 0 0
0 0 0
0 0 0
0 0 0
0 0 0
0 0 0
0 0 0
0 0 0
0 0 0
0 0 0
0 0 0
0 0 0
0 0 0
0 0 0
0 0 0
0 0 0
0 0 0
0 0 0
0 0 0
0 0 0
0 0 0
0 0 0
0 0 0
0 0 0
0 0 0
0 0 0
0 0 0
0 0 0
0 0 0
0 0 0
0 0 0
0 0 0
0 0 0
0 0 0
0 0 0
0 0 0
0 0 0
0 0 0
0 0 0
0 0 0
0 0 0
0 0 0
0 0 0
0 0 0
0 0 0
0 0 0
0 0 0
0 0 0
0 0 0
0 0 0
0 0 0
0 0 0
0 0 0
0 0 0
0 0 0
0 0 0
0 0 0
0 0 0
0 0 0
0 0 0
0 0 0
0 0 0
0 0 0
0 0 0
0 0 0
0 0 0
0 0 0
0 0 0
0 0 0
0 0 0
0 0 0
0 0 0
0 0 0
0 0 0
0 0 0
0 0 0
0 0 0
0 0 0
0 0 0
0 0 0
0 0 0
0 0 0
0 0 0
0 0 0
0 0 0
0 0 0
0 0 0
0 0 0
0 0 0
0 0 0
0 0 0
0 0 0
0 0 0
0 0 0
0 0 0
0 0 0
0 0 0
0 0 0
0 0 0
0 0 0
0 0 0
0 0 0
0 0 0
0 0 0
0 0 0
0 0 0
0 0 0
0 0 0
0 0 0
0 0 0
0 0 0
0 0 0
0 0 0
0 0 0
0 0 0
0 0 0
0 0 0
0 0 0
0 0 0
0 0 0
0 0 0
0 0 0
0 0 0
0 0 0
0 0 0
0 0 0
0 0 0
0 0 0
0 0 0
0 0 0
0 0 0
0 0 0
0 0 0
0 0 0
0 0 0
0 0 0
0 0 0
0 0 0
0 0 0
0 0 0
0 0 0
0 0 0
0 0 0
0 0 0
0 0 0
0 0 0
0 0 0
0 0 0
0 0 0
0 0 0
0 0 0
0 0 0
0 0 0
0 0 0
0 0 0
0 0 0
0 0 0
0 0 0
0 0 0
0 0 0
0 0 0
0 0 0
0 0 0
0 0 0
0 0 0
0 0 0
0 0 0
0 0 0
0 0 0
0 0 0
0 0 0
0 0 0
0 0 0
0 0 0
0 0 0
0 0 0
0 0 0
0 0 0
0 0 0
0 0 0
0 0 0
0 0 0
0 0 0
0 0 0
0 0 0
0 0 0
0 0 0
0 0 0
0 0 0
0 0 0
0 0 0
0 0 0
0 0 0
0 0 0
0 0 0
0 0 0
0 0 0
0 0 0
0 0 0
0 0 0
0 0 0
-0.000140709 -2.52496e-06 0.000168166
-0.000728956 -0.000138516 1.76788e-05
-0.00122102 -1.65894e-05 0.000167816
-0.00209892 -0.000108505 6.44132e-05
-0.00277382 -3.43978e-05 0.000143349
-0.00363267 -8.628e-05 7.47918e-05
-0.00428124 -3.70415e-05 0.000113868
-0.0049616 -6.43107e-05 6.42704e-05
-0.00545036 -2.79188e-05 8.10888e-05
-0.00586263 -4.27733e-05 3.90658e-05
-0.00610428 -1.07732e-05 4.58946e-05
-0.00618607 -2.27695e-05 3.1152e-06
-0.0061261 1.18495e-05 1.06644e-05
-0.00583773 -6.41428e-06 -4.03034e-05
-0.0054629 3.82683e-05 -1.99259e-05
-0.00480536 2.86067e-06 -8.75934e-05
-0.0041691 6.74389e-05 -3.78062e-05
-0.00322117 2.71048e-07 -0.000134025
-0.00247905 9.89208e-05 -3.13987e-05
-0.0014534 -1.82847e-05 -0.000172899
-0.000881947 0.000140633 1.97128e-05
-0.000181249 -3.19193e-05 -0.000178086
0 0 0
0 0 0
-0.000157238 -7.58468e-05 0.000145855
-0.00111937 -0.000209731 -4.91638e-06
-0.00195864 -9.43495e-05 0.000158085
-0.00332808 -0.000113873 6.12107e-05
-0.00445855 -4.62301e-05 0.000140035
-0.00579278 -5.92897e-05 7.59699e-05
-0.00685511 -3.03454e-05 0.000111324
-0.00790887 -4.75088e-05 6.31165e-05
-0.00869281 -4.08449e-05 7.47205e-05
-0.00932778 -6.32594e-05 3.17422e-05
-0.00970234 -6.84688e-05 3.21641e-05
-0.0098241 -9.62071e-05 -1.27815e-05
-0.00970814 -0.00010456 -1.26858e-05
-0.00925855 -0.000136067 -6.55289e-05
-0.00863143 -0.000135772 -5.30667e-05
-0.00761491 -0.00016589 -0.000120005
-0.00655666 -0.000137569 -7.66505e-05
-0.00509574 -0.000159246 -0.000166997
-0.0038516 -7.57517e-05 -6.492e-05
-0.00226878 -9.31054e-05 -0.000195935
-0.00130783 6.50345e-05 1.38326e-05
-0.000173756 -4.3558e-05 -0.000181218
0 0 0
0 0 0
-0.000162094 -9.08777e-05 0.000187815
-0.00135424 -0.000245315 1.49546e-05
-0.00241704 -0.000132454 0.000203904
-0.00409319 -0.000164566 8.85122e-05
-0.0054849 -8.32082e-05 0.000177845
-0.00710009 -0.000102049 0.000100642
-0.00838877 -6.18027e-05 0.000140346
-0.00965379 -8.25243e-05 8.28293e-05
-0.0105937 -6.82729e-05 9.61804e-05
-0.0113481 -9.36365e-05 4.60514e-05
-0.0117885 -9.33132e-05 4.74756e-05
-0.0119243 -0.000124435 -4.04553e-06
-0.0117731 -0.000127348 -2.43642e-06
-0.0112255 -0.000163446 -6.31267e-05
-0.0104611 -0.00015535 -4.75618e-05
-0.00923765 -0.000191826 -0.000125768
-0.00795412 -0.000150746 -7.5995e-05
-0.00619834 -0.000181441 -0.000183394
-0.00468033 -8.07224e-05 -6.80242e-05
-0.00277043 -0.00011204 -0.000223438
-0.00157045 5.16742e-05 1.55979e-05
-0.000200205 -6.01815e-05 -0.000207274
0 0 0
0 0 0
-0.000178856 -0.00014053 0.000176931
-0.00147848 -0.000280091 -3.74042e-06
-0.00265975 -0.000199718 0.00019668
-0.00451074 -0.000213039 7.8477e-05
-0.006057 -0.000141634 0.000172249
-0.00783665 -0.000143765 9.41381e-05
-0.00926109 -0.000108113 0.000135086
-0.0106491 -0.000119127 7.67423e-05
-0.0116816 -0.000110197 8.96235e-05
-0.0125046 -0.000131552 3.81798e-05
-0.0129824 -0.000138454 3.81425e-05
-0.0131251 -0.000168005 -1.51442e-05
-0.0129499 -0.000179551 -1.53549e-05
-0.0123432 -0.000212188 -7.79652e-05
-0.0114921 -0.000212876 -6.3656e-05
-0.0101446 -0.000239037 -0.000143361
-0.00872036 -0.000206647 -9.262e-05
-0.00678862 -0.000216543 -0.000200914
-0.00510599 -0.000129211 -7.96528e-05
-0.00300811 -0.000131466 -0.000237095
-0.00168741 1.28314e-06 1.73011e-05
-0.000204191 -6.57596e-05 -0.000213427
0 0 0
0 0 0
-0.000179299 -0.000135526 0.000197062
-0.00154292 -0.000265506 2.23783e-06
-0.00278381 -0.000207891 0.000217339
-0.0047381 -0.0002268 8.91595e-05
-0.00636512 -0.000163899 0.00018971
-0.00823996 -0.000166918 0.000104777
-0.00973451 -0.000130632 0.000148692
-0.0111914 -0.000138609 8.5531e-05
-0.0122708 -0.000124949 9.96292e-05
-0.0131307 -0.000140977 4.44348e-05
-0.0136271 -0.000141162 4.50179e-05
-0.013772 -0.000164118 -1.17846e-05
-0.0135842 -0.000168112 -1.12009e-05
-0.0129433 -0.000194003 -7.80111e-05
-0.0120482 -0.000188089 -6.19596e-05
-0.0106299 -0.000209648 -0.000147543
-0.00913432 -0.00017571 -9.28965e-05
-0.0071022 -0.000186712 -0.000209807
-0.00533608 -0.000110125 -8.03598e-05
-0.00313334 -0.000119802 -0.00025004
-0.00175254 -1.41258e-05 2.03374e-05
-0.000216088 -6.73068e-05 -0.000226037
0 0 0
0 0 0
-0.000188944 -0.000148274 0.000190985
-0.00157051 -0.000258588 -9.77466e-06
-0.00283595 -0.000225489 0.000211929
-0.00483984 -0.000239319 8.01569e-05
-0.00650735 -0.00018978 0.000184612
-0.00843346 -0.000187238 9.78647e-05
-0.00996616 -0.000155207 0.00014394
-0.0114618 -0.000156832 7.97619e-05
-0.0125679 -0.000143077 9.49404e-05
-0.0134492 -0.000152514 3.89121e-05
-0.0139565 -0.000150822 3.99969e-05
-0.0141032 -0.000166647 -1.77474e-05
-0.0139083 -0.000168403 -1.67589e-05
-0.0132475 -0.000186129 -8.47607e-05
-0.0123266 -0.000179472 -6.77441e-05
-0.0108669 -0.000192211 -0.000154864
-0.0093302 -0.000162927 -9.77541e-05
-0.00724107 -0.000166143 -0.000216897
-0.00543127 -0.000105685 -8.23096e-05
-0.00317538 -0.000108754 -0.000255902
-0.00177206 -3.15908e-05 2.33612e-05
-0.000219536 -6.24634e-05 -0.000229736
0 0 0
0 0 0
-0.000187745 -0.000124895 0.000200275
-0.00158008 -0.000216814 -7.71049e-06
-0.00285299 -0.000197671 0.000221007
-0.00488361 -0.000212192 8.40676e-05
-0.00656875 -0.000174135 0.000192357
-0.00852297 -0.00017259 0.000102069
-0.0100735 -0.000145069 0.000150079
-0.0115905 -0.00014491 8.34207e-05
-0.0127094 -0.000130651 9.95466e-05
-0.0136024 -0.000135827 4.16021e-05
-0.0141153 -0.000130722 4.32635e-05
-0.0142629 -0.000140665 -1.62807e-05
-0.0140651 -0.000138111 -1.46353e-05
-0.0133934 -0.000149722 -8.47956e-05
-0.0124607 -0.000140731 -6.65679e-05
-0.0109782 -0.000149476 -0.000156713
-0.00942259 -0.000124149 -9.71865e-05
-0.00730263 -0.000127924 -0.000220745
-0.00547387 -8.19342e-05 -8.16437e-05
-0.00319149 -8.82873e-05 -0.000261425
-0.00178074 -3.32236e-05 2.52963e-05
-0.000224437 -5.49439e-05 -0.000235538
0 0 0
0 0 0
-0.000192578 -0.000112644 0.000196873
-0.00158177 -0.000183891 -1.41551e-05
-0.00285492 -0.000175981 0.000217636
-0.00489479 -0.000186834 7.84497e-05
-0.0065863 -0.000159588 0.00018909
-0.00855399 -0.000156686 9.74947e-05
-0.010113 -0.000134762 0.0001471
-0.0116415 -0.000132225 7.97203e-05
-0.0127675 -0.00011948 9.68908e-05
-0.0136675 -0.000120941 3.84574e-05
-0.0141839 -0.00011501 4.08675e-05
-0.0143324 -0.000120129 -1.91766e-05
-0.0141333 -0.000116149 -1.67968e-05
-0.0134555 -0.000122424 -8.76477e-05
-0.0125163 -0.000113739 -6.83337e-05
-0.0110208 -0.00011784 -0.000159538
-0.00945545 -9.77568e-05 -9.81294e-05
-0.00731914 -9.87356e-05 -0.000223386
-0.00548257 -6.55737e-05 -8.11978e-05
-0.00318926 -6.94044e-05 -0.000263679
-0.00177902 -3.20567e-05 2.73341e-05
-0.000226482 -4.40192e-05 -0.000237268
0 0 0
0 0 0
-0.000191563 -7.86661e-05 0.000200875
-0.00158023 -0.000129698 -1.33176e-05
-0.00285113 -0.000126257 0.000221474
-0.00489575 -0.000134998 7.99039e-05
-0.00658887 -0.000116708 0.000192421
-0.00856378 -0.000115024 9.913e-05
-0.0101263 -9.93308e-05 0.00014979
-0.0116612 -9.72165e-05 8.11987e-05
-0.0127905 -8.73487e-05 9.89424e-05
-0.0136944 -8.76329e-05 3.95625e-05
-0.0142127 -8.2259e-05 4.23497e-05
-0.0143618 -8.49343e-05 -1.85899e-05
-0.0141625 -8.08472e-05 -1.57938e-05
-0.0134814 -8.44194e-05 -8.77141e-05
-0.0125396 -7.72671e-05 -6.76952e-05
-0.0110371 -7.98272e-05 -0.000160381
-0.00946778 -6.5524e-05 -9.76775e-05
-0.00732297 -6.68958e-05 -0.000225054
-0.00548406 -4.49533e-05 -8.06659e-05
-0.00318598 -4.90539e-05 -0.000266023
-0.00177762 -2.51264e-05 2.81952e-05
-0.000228419 -3.26999e-05 -0.000239841
0 0 0
0 0 0
-0.000193538 -5.33126e-05 0.000199346
-0.00157867 -8.3874e-05 -1.60311e-05
-0.00284748 -8.36002e-05 0.000219923
-0.00489253 -8.85434e-05 7.73674e-05
-0.00658541 -7.81357e-05 0.000190926
-0.00856322 -7.65546e-05 9.70072e-05
-0.0101271 -6.69301e-05 0.000148448
-0.0116652 -6.48852e-05 7.94988e-05
-0.0127962 -5.84051e-05 9.78034e-05
-0.0137023 -5.77311e-05 3.81905e-05
-0.0142218 -5.3839e-05 4.14176e-05
-0.0143713 -5.45799e-05 -1.97509e-05
-0.014172 -5.14561e-05 -1.65125e-05
-0.0134892 -5.27141e-05 -8.87588e-05
-0.012546 -4.7855e-05 -6.81386e-05
-0.0110398 -4.85423e-05 -0.000161349
-0.00946879 -3.97447e-05 -9.77149e-05
-0.0073199 -3.99053e-05 -0.000225935
-0.00548065 -2.72226e-05 -8.0172e-05
-0.00318131 -2.91965e-05 -0.000266787
-0.00177514 -1.59376e-05 2.9136e-05
-0.000229345 -1.93844e-05 -0.000240491
0 0 0
0 0 0
-0.000193175 -1.46888e-05 0.000200458
-0.00157757 -2.48551e-05 -1.57915e-05
-0.0028451 -2.45039e-05 0.000220987
-0.00489056 -2.64171e-05 7.77495e-05
-0.00658311 -2.30167e-05 0.000191863
-0.00856227 -2.27771e-05 9.74427e-05
-0.0101266 -1.9713e-05 0.000149214
-0.0116661 -1.92899e-05 7.98986e-05
-0.0127978 -1.72668e-05 9.83916e-05
-0.0137049 -1.72525e-05 3.84893e-05
-0.0142249 -1.60613e-05 4.18445e-05
-0.0143746 -1.64868e-05 -1.95993e-05
-0.0141754 -1.55342e-05 -1.62209e-05
-0.0134918 -1.61474e-05 -8.87945e-05
-0.0125483 -1.46414e-05 -6.79455e-05
-0.0110405 -1.51398e-05 -0.000161604
-0.00946888 -1.23916e-05 -9.75664e-05
-0.00731827 -1.28176e-05 -0.000226417
-0.00547913 -8.84262e-06 -8.00009e-05
-0.00317932 -9.89483e-06 -0.000267449
-0.00177422 -5.64587e-06 2.93673e-05
-0.000229858 -6.9333e-06 -0.000241228
0 0 0
0 0 0
-0.000193175 1.46888e-05 0.000200458
-0.00157757 2.48551e-05 -1.57915e-05
-0.0028451 2.45039e-05 0.000220987
-0.00489056 2.64171e-05 7.77495e-05
-0.00658311 2.30167e-05 0.000191863
-0.00856227 2.27771e-05 9.74427e-05
-0.0101266 1.9713e-05 0.000149214
-0.0116661 1.92899e-05 7.98986e-05
-0.0127978 1.72668e-05 9.83916e-05
-0.0137049 1.72525e-05 3.84893e-05
-0.0142249 1.60613e-05 4.18445e-05
-0.0143746 1.64868e-05 -1.95993e-05
-0.0141754 1.55342e-05 -1.62209e-05
-0.0134918 1.61474e-05 -8.87945e-05
-0.0125483 1.46414e-05 -6.79455e-05
-0.0110405 1.51398e-05 -0.000161604
-0.00946888 1.23916e-05 -9.75664e-05
-0.00731827 1.28176e-05 -0.000226417
-0.00547913 8.84262e-06 -8.00009e-05
-0.00317932 9.89483e-06 -0.000267449
-0.00177422 5.64587e-06 2.93673e-05
-0.000229858 6.9333e-06 -0.000241228
0 0 0
0 0 0
-0.000193538 5.33126e-05 0.000199346
-0.00157867 8.3874e-05 -1.60311e-05
-0.00284748 8.36002e-05 0.000219923
-0.00489253 8.85434e-05 7.73674e-05
-0.00658541 7.81357e-05 0.000190926
-0.00856322 7.65546e-05 9.70072e-05
-0.0101271 6.69301e-05 0.000148448
-0.0116652 6.48852e-05 7.94988e-05
-0.0127962 5.84051e-05 9.78034e-05
-0.0137023 5.77311e-05 3.81905e-05
-0.0142218 5.3839e-05 4.14176e-05
-0.0143713 5.45799e-05 -1.97509e-05
-0.014172 5.14561e-05 -1.65125e-05
-0.0134892 5.27141e-05 -8.87588e-05
-0.012546 4.7855e-05 -6.81386e-05
-0.0110398 4.85423e-05 -0.000161349
-0.00946879 3.97447e-05 -9.77149e-05
-0.0073199 3.99053e-05 -0.000225935
-0.00548065 2.72226e-05 -8.0172e-05
-0.00318131 2.91965e-05 -0.000266787
-0.00177514 1.59376e-05 2.9136e-05
-0.000229345 1.93844e-05 -0.000240491
0 0 0
0 0 0
-0.000191563 7.86661e-05 0.000200875
-0.00158023 0.000129698 -1.33176e-05
-0.00285113 0.000126257 0.000221474
-0.00489575 0.000134998 7.99039e-05
-0.00658887 0.000116708 0.000192421
-0.00856378 0.000115024 9.913e-05
-0.0101263 9.93308e-05 0.00014979
-0.0116612 9.72165e-05 8.11987e-05
-0.0127905 8.73487e-05 9.89424e-05
-0.0136944 8.76329e-05 3.95625e-05
-0.0142127 8.2259e-05 4.23497e-05
-0.0143618 8.49343e-05 -1.85899e-05
-0.0141625 8.08472e-05 -1.57938e-05
-0.0134814 8.44194e-05 -8.77141e-05
-0.0125396 7.72671e-05 -6.76952e-05
-0.0110371 7.98272e-05 -0.000160381
-0.00946778 6.5524e-05 -9.76775e-05
-0.00732297 6.68958e-05 -0.000225054
-0.00548406 4.49533e-05 -8.06659e-05
-0.00318598 4.90539e-05 -0.000266023
-0.00177762 2.51264e-05 2.81952e-05
-0.000228419 3.26999e-05 -0.000239841
0 0 0
0 0 0
-0.000192578 0.000112644 0.000196873
-0.00158177 0.000183891 -1.41551e-05
-0.00285492 0.000175981 0.000217636
-0.00489479 0.000186834 7.84497e-05
-0.0065863 0.000159588 0.00018909
-0.00855399 0.000156686 9.74947e-05
-0.010113 0.000134762 0.0001471
-0.0116415 0.000132225 7.97203e-05
-0.0127675 0.00011948 9.68908e-05
-0.0136675 0.000120941 3.84574e-05
-0.0141839 0.00011501 4.08675e-05
-0.0143324 0.000120129 -1.91766e-05
-0.0141333 0.000116149 -1.67968e-05
-0.0134555 0.000122424 -8.76477e-05
-0.0125163 0.000113739 -6.83337e-05
-0.0110208 0.00011784 -0.000159538
-0.00945545 9.77568e-05 -9.81294e-05
-0.00731914 9.87356e-05 -0.000223386
-0.00548257 6.55737e-05 -8.11978e-05
-0.00318926 6.94044e-05 -0.000263679
-0.00177902 3.20567e-05 2.73341e-05
-0.000226482 4.40192e-05 -0.000237268
0 0 0
0 0 0
-0.000187745 0.000124895 0.000200275
-0.00158008 0.000216814 -7.71049e-06
-0.00285299 0.000197671 0.000221007
-0.00488361 0.000212192 8.40676e-05
-0.00656875 0.000174135 0.000192357
-0.00852297 0.00017259 0.000102069
-0.0100735 0.000145069 0.000150079
-0.0115905 0.00014491 8.34207e-05
-0.0127094 0.000130651 9.95466e-05
-0.0136024 0.000135827 4.16021e-05
-0.0141153 0.000130722 4.32635e-05
-0.0142629 0.000140665 -1.62807e-05
-0.0140651 0.000138111 -1.46353e-05
-0.0133934 0.000149722 -8.47956e-05
-0.0124607 0.000140731 -6.65679e-05
-0.0109782 0.000149476 -0.000156713
-0.00942259 0.000124149 -9.71865e-05
-0.00730263 0.000127924 -0.000220745
-0.00547387 8.19342e-05 -8.16437e-05
-0.00319149 8.82873e-05 -0.000261425
-0.00178074 3.32236e-05 2.52963e-05
-0.000224437 5.49439e-05 -0.000235538
0 0 0
0 0 0
-0.000188944 0.000148274 0.000190985
-0.00157051 0.000258588 -9.77466e-06
-0.00283595 0.000225489 0.000211929
-0.00483984 0.000239319 8.01569e-05
-0.00650735 0.00018978 0.000184612
-0.00843346 0.000187238 9.78647e-05
-0.00996616 0.000155207 0.00014394
-0.0114618 0.000156832 7.97619e-05
-0.0125679 0.000143077 9.49404e-05
-0.0134492 0.000152514 3.89121e-05
-0.0139565 0.000150822 3.99969e-05
-0.0141032 0.000166647 -1.77474e-05
-0.0139083 0.000168403 -1.67589e-05
-0.0132475 0.000186129 -8.47607e-05
-0.0123266 0.000179472 -6.77441e-05
-0.0108669 0.000192211 -0.000154864
-0.0093302 0.000162927 -9.77541e-05
-0.00724107 0.000166143 -0.000216897
-0.00543127 0.000105685 -8.23096e-05
-0.00317538 0.000108754 -0.000255902
-0.00177206 3.15908e-05 2.33612e-05
-0.000219536 6.24634e-05 -0.000229736
0 0 0
0 0 0
-0.000179299 0.000135526 0.000197062
-0.00154292 0.000265506 2.23783e-06
-0.00278381 0.000207891 0.000217339
-0.0047381 0.0002268 8.91595e-05
-0.00636512 0.000163899 0.00018971
-0.00823996 0.000166918 0.000104777
-0.00973451 0.000130632 0.000148692
-0.0111914 0.000138609 8.5531e-05
-0.0122708 0.000124949 9.96292e-05
-0.0131307 0.000140977 4.44348e-05
-0.0136271 0.000141162 4.50179e-05
-0.013772 0.000164118 -1.17846e-05
-0.0135842 0.000168112 -1.12009e-05
-0.0129433 0.000194003 -7.80111e-05
-0.0120482 0.000188089 -6.19596e-05
-0.0106299 0.000209648 -0.000147543
-0.00913432 0.00017571 -9.28965e-05
-0.0071022 0.000186712 -0.000209807
-0.00533608 0.000110125 -8.03598e-05
-0.00313334 0.000119802 -0.00025004
-0.00175254 1.41258e-05 2.03374e-05
-0.000216088 6.73068e-05 -0.000226037
0 0 0
0 0 0
-0.000178856 0.00014053 0.000176931
-0.00147848 0.000280091 -3.74042e-06
-0.00265975 0.000199718 0.00019668
-0.00451074 0.000213039 7.8477e-05
-0.006057 0.000141634 0.000172249
-0.00783665 0.000143765 9.41381e-05
-0.00926109 0.000108113 0.000135086
-0.0106491 0.000119127 7.67423e-05
-0.0116816 0.000110197 8.96235e-05
-0.0125046 0.000131552 3.81798e-05
-0.0129824 0.000138454 3.81425e-05
-0.0131251 0.000168005 -1.51442e-05
-0.0129499 0.000179551 -1.53549e-05
-0.0123432 0.000212188 -7.79652e-05
-0.0114921 0.000212876 -6.3656e-05
-0.0101446 0.000239037 -0.000143361
-0.00872036 0.000206647 -9.262e-05
-0.00678862 0.000216543 -0.000200914
-0.00510599 0.000129211 -7.96528e-05
-0.00300811 0.000131466 -0.000237095
-0.00168741 -1.28314e-06 1.73011e-05
-0.000204191 6.57596e-05 -0.000213427
0 0 0
0 0 0
-0.000162094 9.08777e-05 0.000187815
-0.00135424 0.000245315 1.49546e-05
-0.00241704 0.000132454 0.000203904
-0.00409319 0.000164566 8.85122e-05
-0.0054849 8.32082e-05 0.000177845
-0.00710009 0.000102049 0.000100642
-0.00838877 6.18027e-05 0.000140346
-0.00965379 8.25243e-05 8.28293e-05
-0.0105937 6.82729e-05 9.61804e-05
-0.0113481 9.36365e-05 4.60514e-05
-0.0117885 9.33132e-05 4.74756e-05
-0.0119243 0.000124435 -4.04553e-06
-0.0117731 0.000127348 -2.43642e-06
-0.0112255 0.000163446 -6.31267e-05
-0.0104611 0.00015535 -4.75618e-05
-0.00923765 0.000191826 -0.000125768
-0.00795412 0.000150746 -7.5995e-05
-0.00619834 0.000181441 -0.000183394
-0.00468033 8.07224e-05 -6.80242e-05
-0.00277043 0.00011204 -0.000223438
-0.00157045 -5.16742e-05 1.55979e-05
-0.000200205 6.01815e-05 -0.000207274
0 0 0
0 0 0
-0.000157238 7.58468e-05 0.000145855
-0.00111937 0.000209731 -4.91638e-06
-0.00195864 9.43495e-05 0.000158085
-0.00332808 0.000113873 6.12107e-05
-0.00445855 4.62301e-05 0.000140035
-0.00579278 5.92897e-05 7.59699e-05
-0.00685511 3.03454e-05 0.000111324
-0.00790887 4.75088e-05 6.31165e-05
-0.00869281 4.08449e-05 7.47205e-05
-0.00932778 6.32594e-05 3.17422e-05
-0.00970234 6.84688e-05 3.21641e-05
-0.0098241 9.62071e-05 -1.27815e-05
-0.00970814 0.00010456 -1.26858e-05
-0.00925855 0.000136067 -6.55289e-05
-0.00863143 0.000135772 -5.30667e-05
-0.00761491 0.00016589 -0.000120005
-0.00655666 0.000137569 -7.66505e-05
-0.00509574 0.000159246 -0.000166997
-0.0038516 7.57517e-05 -6.492e-05
-0.00226878 9.31054e-05 -0.000195935
-0.00130783 -6.50345e-05 1.38326e-05
-0.000173756 4.3558e-05 -0.000181218
0 0 0
0 0 0
-0.000140709 2.52496e-06 0.000168166
-0.000728956 0.000138516 1.76788e-05
-0.00122102 1.65894e-05 0.000167816
-0.00209892 0.000108505 6.44132e-05
-0.00277382 3.43978e-05 0.000143349
-0.00363267 8.628e-05 7.47918e-05
-0.00428124 3.70415e-05 0.000113868
-0.0049616 6.43107e-05 6.42704e-05
-0.00545036 2.79188e-05 8.10888e-05
-0.00586263 4.27733e-05 3.90658e-05
-0.00610428 1.07732e-05 4.58946e-05
-0.00618607 2.27695e-05 3.1152e-06
-0.0061261 -1.18495e-05 1.06644e-05
-0.00583773 6.41428e-06 -4.03034e-05
-0.0054629 -3.82683e-05 -1.99259e-05
-0.00480536 -2.86067e-06 -8.75934e-05
-0.0041691 -6.74389e-05 -3.78062e-05
-0.00322117 -2.71048e-07 -0.000134025
-0.00247905 -9.89208e-05 -3.13987e-05
-0.0014534 1.82847e-05 -0.000172899
-0.000881947 -0.000140633 1.97128e-05
-0.000181249 3.19193e-05 -0.000178086
0 0 0
0 0 0
0 0 0
0 0 0
0 0 0
0 0 0
0 0 0
0 0 0
0 0 0
0 0 0
0 0 0
0 0 0
0 0 0
0 0 0
0 0 0
0 0 0
0 0 0
0 0 0
0 0 0
0 0 0
0 0 0
0 0 0
0 0 0
0 0 0
0 0 0
0 0 0
0 0 0
0 0 0
0 0 0
0 0 0
0 0 0
0 0 0
0 0 0
0 0 0
0 0 0
0 0 0
0 0 0
0 0 0
0 0 0
0 0 0
0 0 0
0 0 0
0 0 0
0 0 0
0 0 0
0 0 0
0 0 0
0 0 0
0 0 0
0 0 0
-3.73821e-05 0.000108837 0.000848938
-0.00107803 -3.79038e-05 0.00107958
-0.00194166 0.000116437 0.00145138
-0.00338738 2.49895e-05 0.00145744
-0.00456259 0.000102652 0.00151916
-0.00595663 4.39413e-05 0.00138852
-0.00706018 8.07578e-05 0.00128963
-0.0081582 3.73387e-05 0.00108496
-0.00897478 5.17049e-05 0.000896633
-0.00963954 1.3715e-05 0.000640547
-0.0100358 1.80027e-05 0.000395687
-0.010171 -2.10131e-05 9.90374e-05
-0.010062 -1.62204e-05 -0.000174496
-0.00960416 -6.1784e-05 -0.000494443
-0.00896435 -4.45628e-05 -0.000754188
-0.00791093 -0.000102639 -0.00106292
-0.00681722 -5.604e-05 -0.00123517
-0.00528644 -0.000136136 -0.00147028
-0.00398998 -3.57257e-05 -0.00143149
-0.00230984 -0.000156734 -0.00149712
-0.00131017 3.93184e-05 -0.00106952
-7.97365e-05 -0.000149349 -0.000897708
0 0 0
0 0 0
-5.78493e-05 -4.38197e-05 0.00121142
-0.00175261 -0.000215705 0.00166842
-0.00325542 -4.33863e-05 0.00225111
-0.00556731 -4.90496e-05 0.00232591
-0.00755599 4.34821e-05 0.00240283
-0.00978208 2.89782e-05 0.00221749
-0.0116135 5.38451e-05 0.00203327
-0.013361 1.81339e-05 0.00170914
-0.0146922 2.55336e-06 0.0013828
-0.0157421 -5.04126e-05 0.000968454
-0.0163679 -8.86186e-05 0.000552735
-0.0165709 -0.000153936 7.27479e-05
-0.0163622 -0.000199436 -0.000389235
-0.0156236 -0.000269791 -0.000900811
-0.0145421 -0.00030176 -0.0013428
-0.0128648 -0.000361763 -0.00182129
-0.0110298 -0.000345225 -0.00212513
-0.00860508 -0.0003741 -0.00245381
-0.00641589 -0.000261251 -0.0024165
-0.00376106 -0.000258019 -0.00241767
-0.00204737 -1.82719e-05 -0.00175054
-7.07898e-05 -0.000140396 -0.00133162
0 0 0
0 0 0
-4.70902e-05 -7.32187e-05 0.00146188
-0.00217192 -0.000277777 0.00206102
-0.00409601 -0.000114034 0.00278987
-0.00696492 -0.000131666 0.0029048
-0.00944883 -2.16619e-05 0.00299349
-0.0121851 -3.86879e-05 0.00276408
-0.0144426 1.8679e-07 0.00252112
-0.0165739 -3.77104e-05 0.00211084
-0.0181964 -4.5363e-05 0.00169102
-0.0194634 -0.00010181 0.00116757
-0.0202107 -0.000135702 0.000638882
-0.0204399 -0.000205946 3.60272e-05
-0.0201632 -0.000247654 -0.000547748
-0.0192474 -0.000323852 -0.00118617
-0.017906 -0.000348412 -0.00174346
-0.0158539 -0.000414106 -0.00233481
-0.0135914 -0.000382209 -0.00271835
-0.0106318 -0.000416559 -0.00311105
-0.00792087 -0.000281157 -0.003064
-0.00467099 -0.000288286 -0.0030249
-0.00250768 -4.27843e-05 -0.00218705
-8.15186e-05 -0.000165131 -0.00161043
0 0 0
0 0 0
-6.10092e-05 -0.000172733 0.00154152
-0.00240339 -0.000370528 0.00220873
-0.00456115 -0.000255496 0.00302393
-0.0077551 -0.000255785 0.00316965
-0.0105345 -0.000154836 0.00326965
-0.0135734 -0.000149803 0.00302156
-0.0160861 -0.000108993 0.00274743
-0.0184427 -0.000129781 0.00229235
-0.0202371 -0.000134873 0.00182058
-0.0216293 -0.000179435 0.00123806
-0.0224452 -0.000212362 0.000645722
-0.0226863 -0.000273014 -2.46056e-05
-0.0223639 -0.000315019 -0.000677546
-0.0213398 -0.000379343 -0.00138525
-0.0198365 -0.00040411 -0.00200764
-0.0175579 -0.000450844 -0.00265763
-0.0150317 -0.000419961 -0.00308313
-0.0117507 -0.000426184 -0.00350055
-0.00872638 -0.000301831 -0.00343818
-0.0051304 -0.000277628 -0.00335822
-0.00272781 -7.51095e-05 -0.00241062
-7.90399e-05 -0.000146359 -0.00174159
0 0 0
0 0 0
-5.42385e-05 -0.000178767 0.00159487
-0.00252294 -0.000366554 0.00228645
-0.00480218 -0.00028939 0.00315489
-0.00818696 -0.000300698 0.00331276
-0.0111272 -0.00021272 0.00342315
-0.0143417 -0.000207755 0.00316144
-0.0169924 -0.000163763 0.00287167
-0.0194765 -0.000176722 0.00238912
-0.0213625 -0.000171286 0.00188908
-0.0228232 -0.0002037 0.00127175
-0.0236745 -0.0002225 0.00064446
-0.02392 -0.000268668 -6.50696e-05
-0.0235719 -0.000294998 -0.000755707
-0.0224845 -0.000344372 -0.00150382
-0.0208937 -0.000354981 -0.00216071
-0.0184846 -0.000390554 -0.00284575
-0.0158165 -0.000354307 -0.0032908
-0.0123504 -0.000360306 -0.00372499
-0.00915897 -0.000251949 -0.00364673
-0.00536757 -0.000241574 -0.00354856
-0.00284332 -8.28357e-05 -0.00253067
-8.13493e-05 -0.000137729 -0.00182152
0 0 0
0 0 0
-6.14699e-05 -0.00020669 0.00159094
-0.00257612 -0.000371 0.00228539
-0.00490856 -0.000331006 0.00317979
-0.00838761 -0.000341044 0.00334489
-0.0114098 -0.000271447 0.00346365
-0.0147187 -0.000260124 0.00319826
-0.017444 -0.000218398 0.00290414
-0.0199988 -0.000220008 0.00241129
-0.0219357 -0.000208525 0.00190037
-0.0234352 -0.000226859 0.00126889
-0.0243067 -0.000235768 0.000626966
-0.0245549 -0.000266016 -9.93202e-05
-0.0241927 -0.000281356 -0.000806394
-0.0230692 -0.000313623 -0.00157214
-0.0214285 -0.000315836 -0.0022439
-0.0189445 -0.00033571 -0.00294361
-0.0161966 -0.000301008 -0.00339518
-0.012627 -0.000297695 -0.00383408
-0.00934787 -0.000211522 -0.00374314
-0.00545697 -0.000199424 -0.00363257
-0.00288245 -8.4871e-05 -0.00257606
-8.00207e-05 -0.00011503 -0.00185031
0 0 0
0 0 0
-5.74846e-05 -0.000179317 0.00159063
-0.00259519 -0.000317577 0.00227887
-0.00494672 -0.000298699 0.00318733
-0.0084747 -0.000312641 0.00335334
-0.0115347 -0.000259796 0.00347844
-0.0148944 -0.000250742 0.00321039
-0.0176564 -0.000213946 0.00291585
-0.0202497 -0.000211653 0.0024177
-0.0222122 -0.000196577 0.00190273
-0.0237329 -0.000206099 0.0012643
-0.0246151 -0.000206441 0.000616254
-0.024865 -0.000224905 -0.000118281
-0.0244962 -0.000230033 -0.000832391
-0.0233531 -0.000250256 -0.00160707
-0.0216878 -0.000245415 -0.00228482
-0.0191627 -0.000257553 -0.00299245
-0.0163756 -0.000226306 -0.00344519
-0.0127502 -0.000224627 -0.00388778
-0.00943052 -0.000159647 -0.00378759
-0.00548989 -0.000156392 -0.00367382
-0.00289705 -7.60198e-05 -0.00259539
-8.01608e-05 -9.65042e-05 -0.00186747
0 0 0
0 0 0
-6.12713e-05 -0.000162897 0.0015751
-0.00259936 -0.000271684 0.00225537
-0.00495427 -0.000267889 0.00316913
-0.00850057 -0.000279539 0.00333552
-0.0115755 -0.000241842 0.00346524
-0.0149595 -0.000232564 0.00319758
-0.0177391 -0.000202357 0.00290529
-0.0203528 -0.000196347 0.0024069
-0.0223291 -0.000180839 0.00189258
-0.0238619 -0.000183249 0.00125322
-0.0247505 -0.000178983 0.000604714
-0.0250019 -0.00018805 -0.000131539
-0.0246301 -0.000187362 -0.000846777
-0.0234763 -0.000197703 -0.00162377
-0.0217981 -0.000189904 -0.00230231
-0.0192506 -0.000194646 -0.00301206
-0.0164435 -0.000168869 -0.00346329
-0.0127893 -0.000165167 -0.00390643
-0.00945206 -0.000118574 -0.00380001
-0.00549047 -0.000116239 -0.00368478
-0.00289526 -6.26781e-05 -0.00259574
-7.98243e-05 -7.31199e-05 -0.00186974
0 0 0
0 0 0
-5.9376e-05 -0.000115902 0.00156812
-0.00259747 -0.000194129 0.00224133
-0.00495016 -0.000195328 0.00315769
-0.00850484 -0.000205439 0.00332307
-0.0115848 -0.000180379 0.00345586
-0.0149812 -0.000174188 0.00318816
-0.0177686 -0.000152308 0.00289785
-0.0203933 -0.000147111 0.00239946
-0.0223764 -0.00013445 0.00188624
-0.0239159 -0.00013445 0.00124669
-0.0248081 -0.000129182 0.000598651
-0.0250605 -0.000133556 -0.000138194
-0.0246878 -0.000130659 -0.000853308
-0.0235284 -0.000136048 -0.00163131
-0.0218444 -0.000128564 -0.0023095
-0.0192848 -0.000130888 -0.0030204
-0.0164689 -0.000112239 -0.00347003
-0.0128 -0.00011044 -0.00391404
-0.00945631 -7.98153e-05 -0.00380368
-0.0054856 -8.05059e-05 -0.00368922
-0.00289226 -4.6641e-05 -0.00259453
-7.9741e-05 -5.30174e-05 -0.00187204
0 0 0
0 0 0
-6.10312e-05 -7.77178e-05 0.00155918
-0.00259504 -0.000124942 0.00222756
-0.00494476 -0.000128233 0.00314444
-0.00850074 -0.000134197 0.00330937
-0.0115814 -0.000119954 0.00344412
-0.0149828 -0.000115524 0.00317705
-0.0177735 -0.000101944 0.00288858
-0.0204036 -9.76095e-05 0.00239112
-0.0223901 -8.8943e-05 0.00187945
-0.0239333 -8.74977e-05 0.00124078
-0.0248276 -8.30412e-05 0.000593971
-0.0250808 -8.41406e-05 -0.00014224
-0.0247078 -8.10852e-05 -0.000856368
-0.0235456 -8.28031e-05 -0.00163405
-0.0218588 -7.72098e-05 -0.00231124
-0.0192932 -7.73025e-05 -0.00302206
-0.0164733 -6.56804e-05 -0.00347022
-0.0127975 -6.38447e-05 -0.00391429
-0.00945199 -4.62661e-05 -0.00380162
-0.00547859 -4.64338e-05 -0.00368768
-0.00288822 -2.79247e-05 -0.0025906
-7.97593e-05 -3.05836e-05 -0.00187077
0 0 0
0 0 0