# vtk DataFile Version 3.0
CFD lid driven cavity 3D
ASCII
DATASET STRUCTURED_POINTS
DIMENSIONS 25 25 25
ORIGIN 0 0 0
SPACING 0.0416667 0.0416667 0.0416667
CELL_DATA 13824
VECTORS velocity double
0 0 0
0 0 0
0 0 0
0 0 0
0 0 0
0 0 0
0 0 0
0 0 0
0 0 0
0 0 0
0 0 0
0 0 0
0 0 0
0 0 0
0 0 0
0 0 0
0 0 0
0 0 0
0 0 0
0 0 0
0 0 0
0 0 0
0 0 0
0 0 0
0 0 0
0 0 0
0 0 0
0 0 0
0 0 0
0 0 0
0 0 0
0 0 0
0 0 0
0 0 0
0 0 0
0 0 0
0 0 0
0 0 0
0 0 0
0 0 0
0 0 0
0 0 0
0 0 0
0 0 0
0 0 0
0 0 0
0 0 0
0 0 0
0 0 0
0 0 0
0 0 0
0 0 0
0 0 0
0 0 0
0 0 0
0 0 0
0 0 0
0 0 0
0 0 0
0 0 0
0 0 0
0 0 0
0 0 0
0 0 0
0 0 0
0 0 0
0 0 0
0 0 0
0 0 0
0 0 0
0 0 0
0 0 0
0 0 0
0 0 0
0 0 0
0 0 0
0 0 0
0 0 0
0 0 0
0 0 0
0 0 0
0 0 0
0 0 0
0 0 0
0 0 0
0 0 0
0 0 0
0 0 0
0 0 0
0 0 0
0 0 0
0 0 0
0 0 0
0 0 0
0 0 0
0 0 0
0 0 0
0 0 0
0 0 0
0 0 0
0 0 0
0 0 0
0 0 0
0 0 0
0 0 0
0 0 0
0 0 0
0 0 0
0 0 0
0 0 0
0 0 0
0 0 0
0 0 0
0 0 0
0 0 0
0 0 0
0 0 0
0 0 0
0 0 0
0 0 0
0 0 0
0 0 0
0 0 0
0 0 0
0 0 0
0 0 0
0 0 0
0 0 0
0 0 0
0 0 0
0 0 0
0 0 0
0 0 0
0 0 0
0 0 0
0 0 0
0 0 0
0 0 0
0 0 0
0 0 0
0 0 0
0 0 0
0 0 0
0 0 0
0 0 0
0 0 0
0 0 0
0 0 0
0 0 0
0 0 0
0 0 0
0 0 0
0 0 0
0 0 0
0 0 0
0 0 0
0 0 0
0 0 0
0 0 0
0 0 0
0 0 0
0 0 0
0 0 0
0 0 0
0 0 0
0 0 0
0 0 0
0 0 0
0 0 0
0 0 0
0 0 0
0 0 0
0 0 0
0 0 0
0 0 0
0 0 0
0 0 0
0 0 0
0 0 0
0 0 0
0 0 0
0 0 0
0 0 0
0 0 0
0 0 0
0 0 0
0 0 0
0 0 0
0 0 0
0 0 0
0 0 0
0 0 0
0 0 0
0 0 0
0 0 0
0 0 0
0 0 0
0 0 0
0 0 0
0 0 0
0 0 0
0 0 0
0 0 0
0 0 0
0 0 0
0 0 0
0 0 0
0 0 0
0 0 0
0 0 0
0 0 0
0 0 0
0 0 0
0 0 0
0 0 0
0 0 0
0 0 0
0 0 0
0 0 0
0 0 0
0 0 0
0 0 0
0 0 0
0 0 0
0 0 0
0 0 0
0 0 0
0 0 0
0 0 0
0 0 0
0 0 0
0 0 0
0 0 0
0 0 0
0 0 0
0 0 0
0 0 0
0 0 0
0 0 0
0 0 0
0 0 0
0 0 0
0 0 0
0 0 0
0 0 0
0 0 0
0 0 0
0 0 0
0 0 0
0 0 0
0 0 0
0 0 0
0 0 0
0 0 0
0 0 0
0 0 0
0 0 0
0 0 0
0 0 0
0 0 0
0 0 0
0 0 0
0 0 0
0 0 0
0 0 0
0 0 0
0 0 0
0 0 0
0 0 0
0 0 0
0 0 0
0 0 0
0 0 0
0 0 0
0 0 0
0 0 0
0 0 0
0 0 0
0 0 0
0 0 0
0 0 0
0 0 0
0 0 0
0 0 0
0 0 0
0 0 0
0 0 0
0 0 0
0 0 0
0 0 0
0 0 0
0 0 0
0 0 0
0 0 0
0 0 0
0 0 0
0 0 0
0 0 0
0 0 0
0 0 0
0 0 0
0 0 0
0 0 0
0 0 0
0 0 0
0 0 0
0 0 0
0 0 0
0 0 0
0 0 0
0 0 0
0 0 0
0 0 0
0 0 0
0 0 0
0 0 0
0 0 0
0 0 0
0 0 0
0 0 0
0 0 0
0 0 0
0 0 0
0 0 0
0 0 0
0 0 0
0 0 0
0 0 0
0 0 0
0 0 0
0 0 0
0 0 0
0 0 0
0 0 0
0 0 0
0 0 0
0 0 0
0 0 0
0 0 0
0 0 0
0 0 0
0 0 0
0 0 0
0 0 0
0 0 0
0 0 0
0 0 0
0 0 0
0 0 0
0 0 0
0 0 0
0 0 0
0 0 0
0 0 0
0 0 0
0 0 0
0 0 0
0 0 0
0 0 0
0 0 0
0 0 0
0 0 0
0 0 0
0 0 0
0 0 0
0 0 0
0 0 0
0 0 0
0 0 0
0 0 0
0 0 0
0 0 0
0 0 0
0 0 0
0 0 0
0 0 0
0 0 0
0 0 0
0 0 0
0 0 0
0 0 0
0 0 0
0 0 0
0 0 0
0 0 0
0 0 0
0 0 0
0 0 0
0 0 0
0 0 0
0 0 0
0 0 0
0 0 0
0 0 0
0 0 0
0 0 0
0 0 0
0 0 0
0 0 0
0 0 0
0 0 0
0 0 0
0 0 0
0 0 0
0 0 0
0 0 0
0 0 0
0 0 0
0 0 0
0 0 0
0 0 0
0 0 0
0 0 0
0 0 0
0 0 0
0 0 0
0 0 0
0 0 0
0 0 0
0 0 0
0 0 0
0 0 0
0 0 0
0 0 0
0 0 0
0 0 0
0 0 0
0 0 0
0 0 0
0 0 0
0 0 0
0 0 0
0 0 0
0 0 0
0 0 0
0 0 0
0 0 0
0 0 0
0 0 0
0 0 0
0 0 0
0 0 0
0 0 0
0 0 0
0 0 0
0 0 0
0 0 0
0 0 0
0 0 0
0 0 0
0 0 0
0 0 0
0 0 0
0 0 0
0 0 0
0 0 0
0 0 0
0 0 0
0 0 0
0 0 0
0 0 0
0 0 0
0 0 0
0 0 0
0 0 0
0 0 0
0 0 0
0 0 0
0 0 0
0 0 0
0 0 0
0 0 0
0 0 0
0 0 0
0 0 0
0 0 0
0 0 0
0 0 0
0 0 0
0 0 0
0 0 0
0 0 0
0 0 0
0 0 0
0 0 0
0 0 0
0 0 0
0 0 0
0 0 0
0 0 0
0 0 0
0 0 0
0 0 0
0 0 0
0 0 0
0 0 0
0 0 0
0 0 0
0 0 0
0 0 0
0 0 0
0 0 0
0 0 0
0 0 0
0 0 0
0 0 0
0 0 0
0 0 0
0 0 0
0 0 0
0 0 0
0 0 0
0 0 0
0 0 0
0 0 0
0 0 0
0 0 0
0 0 0
0 0 0
0 0 0
0 0 0
0 0 0
0 0 0
0 0 0
0 0 0
0 0 0
0 0 0
0 0 0
0 0 0
0 0 0
0 0 0
0 0 0
0 0 0
0 0 0
0 0 0
0 0 0
0 0 0
0 0 0
0 0 0
0 0 0
0 0 0
0 0 0
0 0 0
0 0 0
0 0 0
0 0 0
0 0 0
0 0 0
0 0 0
0 0 0
0 0 0
0 0 0
0 0 0
0 0 0
0 0 0
0 0 0
0 0 0
0 0 0
0 0 0
0 0 0
0 0 0
0 0 0
0 0 0
0 0 0
0 0 0
0 0 0
0 0 0
0 0 0
0 0 0
0 0 0
0 0 0
0 0 0
0 0 0
0 0 0
0 0 0
0 0 0
0 0 0
0 0 0
0 0 0
0 0 0
0 0 0
0 0 0
0 0 0
0 0 0
0 0 0
0 0 0
0 0 0
0 0 0
0 0 0
0 0 0
0 0 0
0 0 0
0 0 0
0 0 0
0 0 0
0 0 0
0 0 0
0 0 0
0 0 0
0 0 0
0 0 0
-0.000121041 -2.02701e-05 0.000173767
-0.000572561 -0.000155346 2.56295e-05
-0.000978247 -3.44304e-05 0.000180656
-0.00178257 -0.000131364 7.80014e-05
-0.00243753 -5.55315e-05 0.000164644
-0.00331872 -0.000112923 9.64971e-05
-0.00402385 -6.20668e-05 0.000142141
-0.00478918 -9.35973e-05 9.2887e-05
-0.00537454 -5.55903e-05 0.000114697
-0.00588396 -7.36311e-05 7.20966e-05
-0.00621271 -3.92986e-05 8.26797e-05
-0.00635047 -5.4351e-05 3.7058e-05
-0.00632061 -1.57358e-05 4.81211e-05
-0.00600693 -3.83139e-05 -9.13017e-06
-0.0055847 1.32494e-05 1.68457e-05
-0.00482494 -2.94088e-05 -6.14011e-05
-0.00410039 4.63829e-05 -3.44326e-07
-0.0030481 -3.22539e-05 -0.000111632
-0.00226714 8.26861e-05 1.0429e-05
-0.00124847 -4.91783e-05 -0.000150069
-0.000739892 0.000127877 6.50833e-05
-0.000179782 -5.70093e-05 -0.000153067
0 0 0
0 0 0
-0.000157942 -0.000180512 0.000126912
-0.000932852 -0.000377516 -2.37988e-05
-0.00166699 -0.000269371 0.000144983
-0.00296834 -0.000298956 4.88728e-05
-0.00411763 -0.000220378 0.000137223
-0.00554408 -0.000235259 7.41417e-05
-0.00675145 -0.000203563 0.00011668
-0.00799136 -0.000230252 6.84469e-05
-0.00897181 -0.000234646 8.38011e-05
-0.00979425 -0.000277895 3.83464e-05
-0.0103252 -0.000305958 3.94206e-05
-0.0105421 -0.000362821 -1.15687e-05
-0.0104593 -0.000397505 -1.21313e-05
-0.00994559 -0.000456437 -7.43131e-05
-0.00919552 -0.000470523 -5.9558e-05
-0.00796688 -0.000511139 -0.00013766
-0.00669876 -0.000467063 -8.25355e-05
-0.00500964 -0.000471578 -0.000184121
-0.00363618 -0.000335456 -5.66057e-05
-0.00200539 -0.000315962 -0.000200442
-0.00110831 -8.33844e-05 4.07608e-05
-0.000151421 -0.000150241 -0.000173588
0 0 0
0 0 0
-0.000145155 -0.000245024 0.000192623
-0.00116952 -0.000509119 1.91357e-05
-0.00215882 -0.000410021 0.000221227
-0.0038322 -0.000459573 0.00010678
-0.00532167 -0.000362564 0.000208887
-0.00712662 -0.00038404 0.000132224
-0.00866035 -0.000340023 0.000180057
-0.0102122 -0.00037508 0.000121567
-0.0114384 -0.000377876 0.000138571
-0.0124545 -0.000434707 8.47556e-05
-0.0131025 -0.000468866 8.63253e-05
-0.0133565 -0.000543457 2.71676e-05
-0.013231 -0.000585501 2.743e-05
-0.0125769 -0.000661996 -4.49704e-05
-0.0116193 -0.000674889 -2.78633e-05
-0.0100839 -0.000726065 -0.000120817
-0.00848041 -0.000661564 -5.94453e-05
-0.00637765 -0.000665329 -0.000182881
-0.00463036 -0.000486363 -4.0501e-05
-0.0025907 -0.000458305 -0.0002144
-0.00140874 -0.000178124 6.0669e-05
-0.00019805 -0.000217956 -0.000187736
0 0 0
0 0 0
-0.000178139 -0.00038558 0.000167501
-0.00134083 -0.000688366 -1.76864e-05
-0.00250022 -0.000636305 0.000200192
-0.00442895 -0.000678277 8.09833e-05
-0.00616239 -0.000590571 0.000189537
-0.0082353 -0.00059666 0.000110762
-0.0100047 -0.000557598 0.000160112
-0.0117766 -0.00058688 9.93532e-05
-0.0131772 -0.000601813 0.00011468
-0.0143267 -0.000664431 5.73953e-05
-0.0150525 -0.000718584 5.51152e-05
-0.015326 -0.000804768 -8.59644e-06
-0.0151586 -0.00086932 -1.29794e-05
-0.0143949 -0.000952293 -9.00815e-05
-0.0132721 -0.00098097 -7.61199e-05
-0.0115072 -0.00101998 -0.000171984
-0.00964627 -0.000956618 -0.000108446
-0.00724199 -0.000921091 -0.000231938
-0.005223 -0.000731468 -7.77041e-05
-0.00290151 -0.000642352 -0.000252031
-0.00154959 -0.00035566 4.92736e-05
-0.000193413 -0.00030503 -0.000209121
0 0 0
0 0 0
-0.000170766 -0.000408235 0.000200789
-0.00144988 -0.000729184 -4.24346e-06
-0.0027224 -0.000709008 0.000236528
-0.00484388 -0.000764238 0.000104999
-0.00674596 -0.00068578 0.000223576
-0.00901382 -0.000693983 0.000136434
-0.0109436 -0.000653585 0.000189395
-0.0128695 -0.000680343 0.000122202
-0.0143857 -0.000690893 0.000137993
-0.0156243 -0.000749527 7.50547e-05
-0.0163985 -0.000798222 7.19057e-05
-0.0166801 -0.000879373 2.4503e-06
-0.0164807 -0.000937258 -2.8398e-06
-0.0156359 -0.00101396 -8.6764e-05
-0.0143999 -0.00103509 -7.23126e-05
-0.0124718 -0.00106796 -0.000176718
-0.0104383 -0.000999916 -0.000108832
-0.00782327 -0.00096189 -0.000243372
-0.0056253 -0.000777836 -7.74201e-05
-0.00311437 -0.000688958 -0.000266524
-0.00165201 -0.000419297 5.82287e-05
-0.00021766 -0.000333272 -0.000219526
0 0 0
0 0 0
-0.000190299 -0.000454979 0.000187097
-0.00152651 -0.000769259 -2.89518e-05
-0.0028718 -0.000784251 0.000223653
-0.00511806 -0.00084033 8.57424e-05
-0.00713463 -0.000779077 0.000210428
-0.00953721 -0.000783059 0.000119827
-0.0115795 -0.000747049 0.000175466
-0.013614 -0.000766377 0.000105893
-0.0152119 -0.000775364 0.000122171
-0.0165131 -0.000825169 5.68511e-05
-0.0173202 -0.000869615 5.28623e-05
-0.0176051 -0.00094038 -1.93395e-05
-0.0173786 -0.000992878 -2.57964e-05
-0.0164708 -0.0010571 -0.000112837
-0.0151468 -0.00107416 -9.82936e-05
-0.0130956 -0.00109392 -0.000205544
-0.0109328 -0.00102902 -0.000133918
-0.00816514 -0.000980495 -0.000271017
-0.00584319 -0.000814356 -9.5208e-05
-0.00320819 -0.000716572 -0.000288475
-0.00168716 -0.000476854 5.36276e-05
-0.000218205 -0.000354888 -0.00023335
0 0 0
0 0 0
-0.000185364 -0.000408953 0.0002031
-0.00157033 -0.000694204 -2.58997e-05
-0.0029587 -0.000724637 0.00024009
-0.00529457 -0.00078166 9.42242e-05
-0.00738652 -0.000734824 0.000225386
-0.0098842 -0.000739877 0.000129638
-0.0120018 -0.000707991 0.000187891
-0.0141121 -0.000722535 0.000114525
-0.0157645 -0.000726711 0.000131354
-0.0171084 -0.000765908 6.27478e-05
-0.0179367 -0.000799453 5.83849e-05
-0.0182226 -0.000855773 -1.71486e-05
-0.0179766 -0.000895527 -2.41079e-05
-0.0170233 -0.000945696 -0.000115012
-0.0156389 -0.000955219 -9.99617e-05
-0.013501 -0.000968353 -0.000211871
-0.0112513 -0.000910658 -0.000137161
-0.00837933 -0.000868715 -0.000280074
-0.00597749 -0.000730789 -9.67867e-05
-0.00326439 -0.000648017 -0.000297732
-0.00170897 -0.000449709 5.72496e-05
-0.00023005 -0.000325724 -0.000239712
0 0 0
0 0 0
-0.000195318 -0.000369618 0.000195703
-0.00159949 -0.000609041 -4.03906e-05
-0.00301357 -0.000649208 0.000232498
-0.00540233 -0.000698988 8.20398e-05
-0.00754147 -0.000666677 0.000217328
-0.0101006 -0.000670009 0.000118971
-0.0122677 -0.000644138 0.000179447
-0.0144288 -0.000652854 0.000104482
-0.016118 -0.000653893 0.00012228
-0.0174911 -0.000681745 5.23533e-05
-0.0183336 -0.000705721 4.82473e-05
-0.0186195 -0.000746872 -2.87131e-05
-0.0183589 -0.000775422 -3.55966e-05
-0.0173726 -0.000810922 -0.000128195
-0.0159445 -0.000815205 -0.000112293
-0.013745 -0.000820764 -0.000226086
-0.0114346 -0.000772856 -0.000148507
-0.00849173 -0.000735272 -0.000293639
-0.00603861 -0.000626977 -0.000104345
-0.00327855 -0.000556745 -0.00030865
-0.00170828 -0.000401066 5.5447e-05
-0.000231308 -0.000284977 -0.000247018
0 0 0
0 0 0
-0.000192503 -0.000270697 0.000202658
-0.00161363 -0.00045007 -4.02537e-05
-0.00304066 -0.000484817 0.000239283
-0.00546473 -0.000524308 8.44918e-05
-0.00763242 -0.000502967 0.000223321
-0.0102319 -0.000506184 0.000122193
-0.0124302 -0.000487111 0.000184286
-0.0146247 -0.000492694 0.000107355
-0.0163373 -0.000491988 0.000125668
-0.0177295 -0.000510667 5.40926e-05
-0.0185811 -0.000526031 4.99896e-05
-0.0188668 -0.000553926 -2.86217e-05
-0.0185966 -0.000572358 -3.5584e-05
-0.0175884 -0.000596139 -0.000130088
-0.0161321 -0.000597408 -0.000113711
-0.0138923 -0.00060039 -0.000229813
-0.0115435 -0.000565566 -0.000150414
-0.00855561 -0.000539093 -0.00029844
-0.00607165 -0.000463233 -0.00010523
-0.00328467 -0.000413606 -0.000313289
-0.00170701 -0.000303717 5.67751e-05
-0.000236584 -0.000213442 -0.000250324
0 0 0
0 0 0
-0.00019655 -0.000179228 0.000199377
-0.0016222 -0.000290604 -4.67834e-05
-0.003056 -0.000315985 0.00023577
-0.00549782 -0.000340758 7.874e-05
-0.00768098 -0.00032919 0.000219563
-0.0103031 -0.0003308 0.000117133
-0.0125191 -0.000318989 0.000180423
-0.0147332 -0.000321325 0.000102735
-0.0164597 -0.000319938 0.000121696
-0.0178633 -0.000329911 4.9563e-05
-0.0187202 -0.000337996 4.58007e-05
-0.0190057 -0.000353392 -3.33862e-05
-0.0187295 -0.000363227 -4.0084e-05
-0.0177078 -0.000376014 -0.000135305
-0.0162341 -0.000375552 -0.000118323
-0.0139697 -0.00037584 -0.000235323
-0.0115977 -0.000354094 -0.000154476
-0.00858331 -0.000336977 -0.000303676
-0.00608214 -0.000291406 -0.000107779
-0.0032811 -0.0002604 -0.000317544
-0.0017016 -0.000194302 5.62167e-05
-0.000237344 -0.000135891 -0.000253313
0 0 0
0 0 0
-0.000195637 -5.41275e-05 0.000201298
-0.00162505 -9.15129e-05 -4.69356e-05
-0.00306124 -9.95253e-05 0.000237589
-0.00551187 -0.000108198 7.92039e-05
-0.00770193 -0.000104307 0.000221141
-0.0103348 -0.000105149 0.000117844
-0.012559 -0.000101293 0.00018168
-0.0147824 -0.000102331 0.000103389
-0.0165153 -0.000101981 0.000122559
-0.0179242 -0.000105526 4.9932e-05
-0.0187837 -0.000108322 4.62171e-05
-0.0190691 -0.000113648 -3.3459e-05
-0.0187901 -0.00011702 -4.01355e-05
-0.017762 -0.000121513 -0.000135923
-0.0162804 -0.000121519 -0.000118749
-0.0140045 -0.00012199 -0.000236445
-0.011622 -0.000115073 -0.000155004
-0.00859546 -0.000109944 -0.000305087
-0.00608665 -9.52802e-05 -0.000108
-0.00327962 -8.5526e-05 -0.000318895
-0.00169941 -6.39833e-05 5.65552e-05
-0.000238828 -4.44844e-05 -0.000254318
0 0 0
0 0 0
-0.000195637 5.41275e-05 0.000201298
-0.00162505 9.15129e-05 -4.69356e-05
-0.00306124 9.95253e-05 0.000237589
-0.00551187 0.000108198 7.92039e-05
-0.00770193 0.000104307 0.000221141
-0.0103348 0.000105149 0.000117844
-0.012559 0.000101293 0.00018168
-0.0147824 0.000102331 0.000103389
-0.0165153 0.000101981 0.000122559
-0.0179242 0.000105526 4.9932e-05
-0.0187837 0.000108322 4.62171e-05
-0.0190691 0.000113648 -3.3459e-05
-0.0187901 0.00011702 -4.01355e-05
-0.017762 0.000121513 -0.000135923
-0.0162804 0.000121519 -0.000118749
-0.0140045 0.00012199 -0.000236445
-0.011622 0.000115073 -0.000155004
-0.00859546 0.000109944 -0.000305087
-0.00608665 9.52802e-05 -0.000108
-0.00327962 8.5526e-05 -0.000318895
-0.00169941 6.39833e-05 5.65552e-05
-0.000238828 4.44844e-05 -0.000254318
0 0 0
0 0 0
-0.00019655 0.000179228 0.000199377
-0.0016222 0.000290604 -4.67834e-05
-0.003056 0.000315985 0.00023577
-0.00549782 0.000340758 7.874e-05
-0.00768098 0.00032919 0.000219563
-0.0103031 0.0003308 0.000117133
-0.0125191 0.000318989 0.000180423
-0.0147332 0.000321325 0.000102735
-0.0164597 0.000319938 0.000121696
-0.0178633 0.000329911 4.9563e-05
-0.0187202 0.000337996 4.58007e-05
-0.0190057 0.000353392 -3.33862e-05
-0.0187295 0.000363227 -4.0084e-05
-0.0177078 0.000376014 -0.000135305
-0.0162341 0.000375552 -0.000118323
-0.0139697 0.00037584 -0.000235323
-0.0115977 0.000354094 -0.000154476
-0.00858331 0.000336977 -0.000303676
-0.00608214 0.000291406 -0.000107779
-0.0032811 0.0002604 -0.000317544
-0.0017016 0.000194302 5.62167e-05
-0.000237344 0.000135891 -0.000253313
0 0 0
0 0 0
-0.000192503 0.000270697 0.000202658
-0.00161363 0.00045007 -4.02537e-05
-0.00304066 0.000484817 0.000239283
-0.00546473 0.000524308 8.44918e-05
-0.00763242 0.000502967 0.000223321
-0.0102319 0.000506184 0.000122193
-0.0124302 0.000487111 0.000184286
-0.0146247 0.000492694 0.000107355
-0.0163373 0.000491988 0.000125668
-0.0177295 0.000510667 5.40926e-05
-0.0185811 0.000526031 4.99896e-05
-0.0188668 0.000553926 -2.86217e-05
-0.0185966 0.000572358 -3.5584e-05
-0.0175884 0.000596139 -0.000130088
-0.0161321 0.000597408 -0.000113711
-0.0138923 0.00060039 -0.000229813
-0.0115435 0.000565566 -0.000150414
-0.00855561 0.000539093 -0.00029844
-0.00607165 0.000463233 -0.00010523
-0.00328467 0.000413606 -0.000313289
-0.00170701 0.000303717 5.67751e-05
-0.000236584 0.000213442 -0.000250324
0 0 0
0 0 0
-0.000195318 0.000369618 0.000195703
-0.00159949 0.000609041 -4.03906e-05
-0.00301357 0.000649208 0.000232498
-0.00540233 0.000698988 8.20398e-05
-0.00754147 0.000666677 0.000217328
-0.0101006 0.000670009 0.000118971
-0.0122677 0.000644138 0.000179447
-0.0144288 0.000652854 0.000104482
-0.016118 0.000653893 0.00012228
-0.0174911 0.000681745 5.23533e-05
-0.0183336 0.000705721 4.82473e-05
-0.0186195 0.000746872 -2.87131e-05
-0.0183589 0.000775422 -3.55966e-05
-0.0173726 0.000810922 -0.000128195
-0.0159445 0.000815205 -0.000112293
-0.013745 0.000820764 -0.000226086
-0.0114346 0.000772856 -0.000148507
-0.00849173 0.000735272 -0.000293639
-0.00603861 0.000626977 -0.000104345
-0.00327855 0.000556745 -0.00030865
-0.00170828 0.000401066 5.5447e-05
-0.000231308 0.000284977 -0.000247018
0 0 0
0 0 0
-0.000185364 0.000408953 0.0002031
-0.00157033 0.000694204 -2.58997e-05
-0.0029587 0.000724637 0.00024009
-0.00529457 0.00078166 9.42242e-05
-0.00738652 0.000734824 0.000225386
-0.0098842 0.000739877 0.000129638
-0.0120018 0.000707991 0.000187891
-0.0141121 0.000722535 0.000114525
-0.0157645 0.000726711 0.000131354
-0.0171084 0.000765908 6.27478e-05
-0.0179367 0.000799453 5.83849e-05
-0.0182226 0.000855773 -1.71486e-05
-0.0179766 0.000895527 -2.41079e-05
-0.0170233 0.000945696 -0.000115012
-0.0156389 0.000955219 -9.99617e-05
-0.013501 0.000968353 -0.000211871
-0.0112513 0.000910658 -0.000137161
-0.00837933 0.000868715 -0.000280074
-0.00597749 0.000730789 -9.67867e-05
-0.00326439 0.000648017 -0.000297732
-0.00170897 0.000449709 5.72496e-05
-0.00023005 0.000325724 -0.000239712
0 0 0
0 0 0
-0.000190299 0.000454979 0.000187097
-0.00152651 0.000769259 -2.89518e-05
-0.0028718 0.000784251 0.000223653
-0.00511806 0.00084033 8.57424e-05
-0.00713463 0.000779077 0.000210428
-0.00953721 0.000783059 0.000119827
-0.0115795 0.000747049 0.000175466
-0.013614 0.000766377 0.000105893
-0.0152119 0.000775364 0.000122171
-0.0165131 0.000825169 5.68511e-05
-0.0173202 0.000869615 5.28623e-05
-0.0176051 0.00094038 -1.93395e-05
-0.0173786 0.000992878 -2.57964e-05
-0.0164708 0.0010571 -0.000112837
-0.0151468 0.00107416 -9.82936e-05
-0.0130956 0.00109392 -0.000205544
-0.0109328 0.00102902 -0.000133918
-0.00816514 0.000980495 -0.000271017
-0.00584319 0.000814356 -9.5208e-05
-0.00320819 0.000716572 -0.000288475
-0.00168716 0.000476854 5.36276e-05
-0.000218205 0.000354888 -0.00023335
0 0 0
0 0 0
-0.000170766 0.000408235 0.000200789
-0.00144988 0.000729184 -4.24346e-06
-0.0027224 0.000709008 0.000236528
-0.00484388 0.000764238 0.000104999
-0.00674596 0.00068578 0.000223576
-0.00901382 0.000693983 0.000136434
-0.0109436 0.000653585 0.000189395
-0.0128695 0.000680343 0.000122202
-0.0143857 0.000690893 0.000137993
-0.0156243 0.000749527 7.50547e-05
-0.0163985 0.000798222 7.19057e-05
-0.0166801 0.000879373 2.4503e-06
-0.0164807 0.000937258 -2.8398e-06
-0.0156359 0.00101396 -8.6764e-05
-0.0143999 0.00103509 -7.23126e-05
-0.0124718 0.00106796 -0.000176718
-0.0104383 0.000999916 -0.000108832
-0.00782327 0.00096189 -0.000243372
-0.0056253 0.000777836 -7.74201e-05
-0.00311437 0.000688958 -0.000266524
-0.00165201 0.000419297 5.82287e-05
-0.00021766 0.000333272 -0.000219526
0 0 0
0 0 0
-0.000178139 0.00038558 0.000167501
-0.00134083 0.000688366 -1.76864e-05
-0.00250022 0.000636305 0.000200192
-0.00442895 0.000678277 8.09833e-05
-0.00616239 0.000590571 0.000189537
-0.0082353 0.00059666 0.000110762
-0.0100047 0.000557598 0.000160112
-0.0117766 0.00058688 9.93532e-05
-0.0131772 0.000601813 0.00011468
-0.0143267 0.000664431 5.73953e-05
-0.0150525 0.000718584 5.51152e-05
-0.015326 0.000804768 -8.59644e-06
-0.0151586 0.00086932 -1.29794e-05
-0.0143949 0.000952293 -9.00815e-05
-0.0132721 0.00098097 -7.61199e-05
-0.0115072 0.00101998 -0.000171984
-0.00964627 0.000956618 -0.000108446
-0.00724199 0.000921091 -0.000231938
-0.005223 0.000731468 -7.77041e-05
-0.00290151 0.000642352 -0.000252031
-0.00154959 0.00035566 4.92736e-05
-0.000193413 0.00030503 -0.000209121
0 0 0
0 0 0
-0.000145155 0.000245024 0.000192623
-0.00116952 0.000509119 1.91357e-05
-0.00215882 0.000410021 0.000221227
-0.0038322 0.000459573 0.00010678
-0.00532167 0.000362564 0.000208887
-0.00712662 0.00038404 0.000132224
-0.00866035 0.000340023 0.000180057
-0.0102122 0.00037508 0.000121567
-0.0114384 0.000377876 0.000138571
-0.0124545 0.000434707 8.47556e-05
-0.0131025 0.000468866 8.63253e-05
-0.0133565 0.000543457 2.71676e-05
-0.013231 0.000585501 2.743e-05
-0.0125769 0.000661996 -4.49704e-05
-0.0116193 0.000674889 -2.78633e-05
-0.0100839 0.000726065 -0.000120817
-0.00848041 0.000661564 -5.94453e-05
-0.00637765 0.000665329 -0.000182881
-0.00463036 0.000486363 -4.0501e-05
-0.0025907 0.000458305 -0.0002144
-0.00140874 0.000178124 6.0669e-05
-0.00019805 0.000217956 -0.000187736
0 0 0
0 0 0
-0.000157942 0.000180512 0.000126912
-0.000932852 0.000377516 -2.37988e-05
-0.00166699 0.000269371 0.000144983
-0.00296834 0.000298956 4.88728e-05
-0.00411763 0.000220378 0.000137223
-0.00554408 0.000235259 7.41417e-05
-0.00675145 0.000203563 0.00011668
-0.00799136 0.000230252 6.84469e-05
-0.00897181 0.000234646 8.38011e-05
-0.00979425 0.000277895 3.83464e-05
-0.0103252 0.000305958 3.94206e-05
-0.0105421 0.000362821 -1.15687e-05
-0.0104593 0.000397505 -1.21313e-05
-0.00994559 0.000456437 -7.43131e-05
-0.00919552 0.000470523 -5.9558e-05
-0.00796688 0.000511139 -0.00013766
-0.00669876 0.000467063 -8.25355e-05
-0.00500964 0.000471578 -0.000184121
-0.00363618 0.000335456 -5.66057e-05
-0.00200539 0.000315962 -0.000200442
-0.00110831 8.33844e-05 4.07608e-05
-0.000151421 0.000150241 -0.000173588
0 0 0
0 0 0
-0.000121041 2.02701e-05 0.000173767
-0.000572561 0.000155346 2.56295e-05
-0.000978247 3.44304e-05 0.000180656
-0.00178257 0.000131364 7.80014e-05
-0.00243753 5.55315e-05 0.000164644
-0.00331872 0.000112923 9.64971e-05
-0.00402385 6.20668e-05 0.000142141
-0.00478918 9.35973e-05 9.2887e-05
-0.00537454 5.55903e-05 0.000114697
-0.00588396 7.36311e-05 7.20966e-05
-0.00621271 3.92986e-05 8.26797e-05
-0.00635047 5.4351e-05 3.7058e-05
-0.00632061 1.57358e-05 4.81211e-05
-0.00600693 3.83139e-05 -9.13017e-06
-0.0055847 -1.32494e-05 1.68457e-05
-0.00482494 2.94088e-05 -6.14011e-05
-0.00410039 -4.63829e-05 -3.44326e-07
-0.0030481 3.22539e-05 -0.000111632
-0.00226714 -8.26861e-05 1.0429e-05
-0.00124847 4.91783e-05 -0.000150069
-0.000739892 -0.000127877 6.50833e-05
-0.000179782 5.70093e-05 -0.000153067
0 0 0
0 0 0
0 0 0
0 0 0
0 0 0
0 0 0
0 0 0
0 0 0
0 0 0
0 0 0
0 0 0
0 0 0
0 0 0
0 0 0
0 0 0
0 0 0
0 0 0
0 0 0
0 0 0
0 0 0
0 0 0
0 0 0
0 0 0
0 0 0
0 0 0
0 0 0
0 0 0
0 0 0
0 0 0
0 0 0
0 0 0
0 0 0
0 0 0
0 0 0
0 0 0
0 0 0
0 0 0
0 0 0
0 0 0
0 0 0
0 0 0
0 0 0
0 0 0
0 0 0
0 0 0
0 0 0
0 0 0
0 0 0
0 0 0
0 0 0
-1.15846e-05 9.21487e-05 0.000811958
-0.00085981 -5.40538e-05 0.00104632
-0.00160699 0.000104647 0.00148628
-0.00297926 1.22505e-05 0.00156165
-0.00416785 9.77339e-05 0.00170829
-0.00565202 3.78988e-05 0.00164567
-0.00690123 7.97936e-05 0.00160859
-0.00818913 3.38116e-05 0.00144587
-0.00920953 4.93926e-05 0.00128577
-0.0100718 6.25189e-06 0.00103708
-0.0106375 8.74703e-06 0.000783234
-0.0108818 -3.83801e-05 0.000456498
-0.0108214 -3.58594e-05 0.000142196
-0.0103121 -9.1526e-05 -0.000233205
-0.00956121 -7.26255e-05 -0.000537359
-0.00830043 -0.000141303 -0.000891568
-0.00700108 -8.35137e-05 -0.00106171
-0.00523726 -0.000173869 -0.00129352
-0.0038106 -5.04239e-05 -0.00117579
-0.00207674 -0.000183476 -0.00121256
-0.00114052 3.94911e-05 -0.000707343
-9.06485e-05 -0.000164568 -0.00065701
0 0 0
0 0 0
-5.49981e-05 -0.000214835 0.00113757
-0.00150329 -0.00049758 0.0016077
-0.00288131 -0.000339507 0.00231386
-0.00516369 -0.000356258 0.00251539
-0.00726675 -0.000243375 0.00273635
-0.00973812 -0.000254607 0.0026632
-0.0119015 -0.000224274 0.00257104
-0.0140436 -0.000273996 0.00230071
-0.0157775 -0.000311188 0.00199722
-0.0172017 -0.000402325 0.00156702
-0.0181316 -0.000486167 0.00110231
-0.0185198 -0.000607182 0.000537787
-0.0183657 -0.000706468 -2.96067e-05
-0.0175014 -0.000829275 -0.000664196
-0.0161622 -0.000893539 -0.00121121
-0.0140645 -0.000971836 -0.00177846
-0.0117815 -0.000930744 -0.00209256
-0.00887267 -0.000921124 -0.00239899
-0.00635486 -0.000713495 -0.00222363
-0.00350933 -0.000631018 -0.00213218
-0.00182457 -0.000256347 -0.0013174
-5.78508e-05 -0.000303676 -0.00103623
0 0 0
0 0 0
-2.33596e-05 -0.000337587 0.00142837
-0.00194942 -0.000736882 0.002071
-0.00382568 -0.000606139 0.00298427
-0.006803 -0.000648395 0.00327445
-0.00956747 -0.000512837 0.00355024
-0.0127473 -0.00052759 0.00345596
-0.0155405 -0.00048323 0.00331185
-0.0182681 -0.000543844 0.00294302
-0.0204735 -0.000585715 0.00251735
-0.0222625 -0.000700307 0.00193345
-0.0234157 -0.000802949 0.00129774
-0.0238755 -0.000955655 0.00054153
-0.0236374 -0.0010763 -0.000222283
-0.0225121 -0.00122839 -0.00105841
-0.0207705 -0.00129844 -0.00178566
-0.0180988 -0.00138776 -0.00251403
-0.0151626 -0.00131753 -0.00292572
-0.0114769 -0.00129065 -0.00328644
-0.00822553 -0.00101328 -0.00305144
-0.00460674 -0.000893346 -0.00286111
-0.00236649 -0.000437178 -0.00179408
-8.90388e-05 -0.000424418 -0.00132994
0 0 0
0 0 0
-5.48687e-05 -0.000585717 0.0015079
-0.00227856 -0.00107065 0.00223382
-0.00449928 -0.00101961 0.00328321
-0.00796794 -0.00106526 0.00363778
-0.0112115 -0.000940833 0.00395334
-0.0149 -0.000936699 0.00384911
-0.0181484 -0.000892165 0.00366846
-0.0212918 -0.000942622 0.00323242
-0.0238307 -0.000993266 0.00271834
-0.0258714 -0.0011121 0.0020255
-0.0271721 -0.00123401 0.00126506
-0.027669 -0.00139818 0.000372264
-0.0273507 -0.00154032 -0.000533849
-0.0260211 -0.00169606 -0.00150989
-0.0239654 -0.00177566 -0.00236269
-0.0208644 -0.00184218 -0.00319145
-0.017435 -0.00175826 -0.0036583
-0.0131821 -0.0016722 -0.00402707
-0.00939923 -0.00136389 -0.00372155
-0.00524235 -0.00115848 -0.00341984
-0.00265083 -0.000680564 -0.00214403
-7.4006e-05 -0.000539015 -0.00152915
0 0 0
0 0 0
-4.09333e-05 -0.000647141 0.00157541
-0.0024961 -0.00117094 0.00233374
-0.0049528 -0.00117901 0.00347878
-0.00878733 -0.00125052 0.00386819
-0.0123691 -0.00114296 0.00421311
-0.0164278 -0.00114161 0.00409498
-0.0199936 -0.00109368 0.0038868
-0.0234306 -0.00113724 0.00339639
-0.0261963 -0.00117819 0.00281592
-0.028407 -0.00128689 0.00203918
-0.0298015 -0.00139658 0.0011863
-0.0303142 -0.00154819 0.000190923
-0.0299313 -0.00167539 -0.000818215
-0.0284473 -0.00181574 -0.00189701
-0.0261676 -0.00187841 -0.00283631
-0.0227563 -0.00192949 -0.00373605
-0.018984 -0.00183365 -0.00423211
-0.0143288 -0.00173959 -0.00460255
-0.0101848 -0.0014374 -0.00422953
-0.00565948 -0.00123202 -0.00384482
-0.00283959 -0.000779207 -0.00240177
-8.33646e-05 -0.000582479 -0.00168364
0 0 0
0 0 0
-5.9539e-05 -0.000724919 0.00155831
-0.00264835 -0.00124656 0.00231582
-0.0052592 -0.00131071 0.0035165
-0.00933689 -0.001392 0.00392673
-0.01315 -0.00131013 0.00429228
-0.0174655 -0.0013051 0.00416726
-0.021253 -0.00125948 0.00394336
-0.0248958 -0.00128926 0.00341963
-0.0278199 -0.00132035 0.002797
-0.0301487 -0.00140952 0.00196643
-0.0316057 -0.00150291 0.00105296
-0.0321245 -0.00163082 -9.47868e-06
-0.0316884 -0.00173893 -0.00108666
-0.0300863 -0.00185281 -0.00223181
-0.0276369 -0.00189934 -0.00322608
-0.0239951 -0.00192712 -0.00416704
-0.019971 -0.00183012 -0.00467457
-0.0150278 -0.00172447 -0.00503395
-0.0106348 -0.00144945 -0.00460201
-0.00586744 -0.00124244 -0.00414713
-0.00291725 -0.000838774 -0.00257974
-7.38175e-05 -0.000596837 -0.00178553
0 0 0
0 0 0
-5.34997e-05 -0.000663933 0.00154879
-0.00274094 -0.00114052 0.00229108
-0.00544749 -0.00122848 0.00352663
-0.00969494 -0.00131511 0.00394488
-0.0136623 -0.0012554 0.00432477
-0.0181568 -0.0012535 0.00419273
-0.0220945 -0.00121204 0.00395872
-0.0258799 -0.00123265 0.00341108
-0.0289108 -0.00125194 0.00276001
-0.0313196 -0.00132047 0.00189191
-0.0328172 -0.00139099 0.000937389
-0.0333371 -0.00149102 -0.000171288
-0.0328618 -0.00157277 -0.00129409
-0.0311739 -0.00165957 -0.00248436
-0.0286054 -0.0016887 -0.00351384
-0.0248006 -0.00170385 -0.00448178
-0.0206042 -0.00161547 -0.00499264
-0.015463 -0.00152318 -0.00534274
-0.010907 -0.00129376 -0.00486448
-0.00598466 -0.00111867 -0.00436141
-0.00295824 -0.000783082 -0.00270417
-7.51155e-05 -0.000545375 -0.00186055
0 0 0
0 0 0
-6.37861e-05 -0.000595522 0.00151394
-0.00280122 -0.000997813 0.00223616
-0.00556525 -0.00109455 0.00348927
-0.00991611 -0.00117304 0.00391117
-0.0139809 -0.00113358 0.00430107
-0.0185916 -0.00113141 0.00416631
-0.0226277 -0.00109651 0.00392849
-0.0265083 -0.00110734 0.00336842
-0.0296106 -0.00111706 0.00270216
-0.0320734 -0.00116439 0.00181299
-0.0335977 -0.00121361 0.000834902
-0.0341169 -0.0012851 -0.000300768
-0.033613 -0.00134248 -0.00145043
-0.0318638 -0.00140247 -0.00266711
-0.0292112 -0.00141809 -0.00371659
-0.0252924 -0.00142153 -0.00469881
-0.0209776 -0.00134693 -0.00520832
-0.0157035 -0.00126801 -0.00554865
-0.0110429 -0.00108807 -0.00503645
-0.00602676 -0.000944727 -0.00449913
-0.00296279 -0.000681697 -0.00278181
-6.96546e-05 -0.0004673 -0.00190575
0 0 0
0 0 0
-6.14662e-05 -0.000441969 0.00149338
-0.00283361 -0.000744007 0.00219723
-0.00562908 -0.000825121 0.00346009
-0.0100462 -0.000888338 0.00388186
-0.0141705 -0.00086365 0.00427833
-0.0188563 -0.000863244 0.00414122
-0.0229545 -0.000837139 0.00390163
-0.0268968 -0.000843092 0.00333371
-0.0300448 -0.000847062 0.00265848
-0.0325424 -0.000877944 0.00175621
-0.0340836 -0.00090943 0.000763864
-0.0346019 -0.00095699 -0.000388549
-0.0340789 -0.000993884 -0.00155446
-0.0322889 -0.00103304 -0.00278744
-0.0295815 -0.00104043 -0.00384857
-0.0255879 -0.00104032 -0.00483943
-0.0211977 -0.00098544 -0.00534674
-0.015839 -0.000929162 -0.00568078
-0.0111149 -0.000802721 -0.00514574
-0.00604386 -0.000701218 -0.00458754
-0.00296097 -0.000514874 -0.00283144
-6.91002e-05 -0.000350006 -0.00193643
0 0 0
0 0 0
-6.59988e-05 -0.000288411 0.0014717
-0.00285224 -0.00047632 0.00216205
-0.00566409 -0.000532123 0.0034288
-0.0101159 -0.00057233 0.00385021
-0.0142729 -0.000559428 0.00425084
-0.0190009 -0.000558776 0.00411328
-0.0231347 -0.000542284 0.00387393
-0.0271131 -0.000544041 0.00330294
-0.0302879 -0.000544486 0.0026241
-0.0328062 -0.000560674 0.00171588
-0.0343573 -0.000577254 0.000716866
-0.034875 -0.000603214 -0.000443701
-0.0343402 -0.000622883 -0.00161759
-0.0325253 -0.000643685 -0.00285869
-0.0297845 -0.000645823 -0.00392537
-0.025746 -0.000643374 -0.00492014
-0.0213109 -0.000609101 -0.00542521
-0.0159028 -0.000573878 -0.00575485
-0.0111432 -0.000498278 -0.005206
-0.0060432 -0.000436247 -0.00463553
-0.00295319 -0.000324605 -0.00285734
-6.67112e-05 -0.000219603 -0.0019519
0 0 0
0 0 0
-6.54098e-05 -9.0184e-05 0.00146317
-0.00285941 -0.000153257 0.00214647
-0.00567777 -0.000171732 0.0034149
-0.010146 -0.000185802 0.00383566
-0.0143175 -0.000181628 0.00423823
-0.0190653 -0.000181828 0.00410027