# vtk DataFile Version 3.0
CFD lid driven cavity 3D
ASCII
DATASET STRUCTURED_POINTS
DIMENSIONS 25 25 25
ORIGIN 0 0 0
SPACING 0.0416667 0.0416667 0.0416667
CELL_DATA 13824
VECTORS velocity double
0 0 0
0 0 0
0 0 0
0 0 0
0 0 0
0 0 0
0 0 0
0 0 0
0 0 0
0 0 0
0 0 0
0 0 0
0 0 0
0 0 0
0 0 0
0 0 0
0 0 0
0 0 0
0 0 0
0 0 0
0 0 0
0 0 0
0 0 0
0 0 0
0 0 0
0 0 0
0 0 0
0 0 0
0 0 0
0 0 0
0 0 0
0 0 0
0 0 0
0 0 0
0 0 0
0 0 0
0 0 0
0 0 0
0 0 0
0 0 0
0 0 0
0 0 0
0 0 0
0 0 0
0 0 0
0 0 0
0 0 0
0 0 0
0 0 0
0 0 0
0 0 0
0 0 0
0 0 0
0 0 0
0 0 0
0 0 0
0 0 0
0 0 0
0 0 0
0 0 0
0 0 0
0 0 0
0 0 0
0 0 0
0 0 0
0 0 0
0 0 0
0 0 0
0 0 0
0 0 0
0 0 0
0 0 0
0 0 0
0 0 0
0 0 0
0 0 0
0 0 0
0 0 0
0 0 0
0 0 0
0 0 0
0 0 0
0 0 0
0 0 0
0 0 0
0 0 0
0 0 0
0 0 0
0 0 0
0 0 0
0 0 0
0 0 0
0 0 0
0 0 0
0 0 0
0 0 0
0 0 0
0 0 0
0 0 0
0 0 0
0 0 0
0 0 0
0 0 0
0 0 0
0 0 0
0 0 0
0 0 0
0 0 0
0 0 0
0 0 0
0 0 0
0 0 0
0 0 0
0 0 0
0 0 0
0 0 0
0 0 0
0 0 0
0 0 0
0 0 0
0 0 0
0 0 0
0 0 0
0 0 0
0 0 0
0 0 0
0 0 0
0 0 0
0 0 0
0 0 0
0 0 0
0 0 0
0 0 0
0 0 0
0 0 0
0 0 0
0 0 0
0 0 0
0 0 0
0 0 0
0 0 0
0 0 0
0 0 0
0 0 0
0 0 0
0 0 0
0 0 0
0 0 0
0 0 0
0 0 0
0 0 0
0 0 0
0 0 0
0 0 0
0 0 0
0 0 0
0 0 0
0 0 0
0 0 0
0 0 0
0 0 0
0 0 0
0 0 0
0 0 0
0 0 0
0 0 0
0 0 0
0 0 0
0 0 0
0 0 0
0 0 0
0 0 0
0 0 0
0 0 0
0 0 0
0 0 0
0 0 0
0 0 0
0 0 0
0 0 0
0 0 0
0 0 0
0 0 0
0 0 0
0 0 0
0 0 0
0 0 0
0 0 0
0 0 0
0 0 0
0 0 0
0 0 0
0 0 0
0 0 0
0 0 0
0 0 0
0 0 0
0 0 0
0 0 0
0 0 0
0 0 0
0 0 0
0 0 0
0 0 0
0 0 0
0 0 0
0 0 0
0 0 0
0 0 0
0 0 0
0 0 0
0 0 0
0 0 0
0 0 0
0 0 0
0 0 0
0 0 0
0 0 0
0 0 0
0 0 0
0 0 0
0 0 0
0 0 0
0 0 0
0 0 0
0 0 0
0 0 0
0 0 0
0 0 0
0 0 0
0 0 0
0 0 0
0 0 0
0 0 0
0 0 0
0 0 0
0 0 0
0 0 0
0 0 0
0 0 0
0 0 0
0 0 0
0 0 0
0 0 0
0 0 0
0 0 0
0 0 0
0 0 0
0 0 0
0 0 0
0 0 0
0 0 0
0 0 0
0 0 0
0 0 0
0 0 0
0 0 0
0 0 0
0 0 0
0 0 0
0 0 0
0 0 0
0 0 0
0 0 0
0 0 0
0 0 0
0 0 0
0 0 0
0 0 0
0 0 0
0 0 0
0 0 0
0 0 0
0 0 0
0 0 0
0 0 0
0 0 0
0 0 0
0 0 0
0 0 0
0 0 0
0 0 0
0 0 0
0 0 0
0 0 0
0 0 0
0 0 0
0 0 0
0 0 0
0 0 0
0 0 0
0 0 0
0 0 0
0 0 0
0 0 0
0 0 0
0 0 0
0 0 0
0 0 0
0 0 0
0 0 0
0 0 0
0 0 0
0 0 0
0 0 0
0 0 0
0 0 0
0 0 0
0 0 0
0 0 0
0 0 0
0 0 0
0 0 0
0 0 0
0 0 0
0 0 0
0 0 0
0 0 0
0 0 0
0 0 0
0 0 0
0 0 0
0 0 0
0 0 0
0 0 0
0 0 0
0 0 0
0 0 0
0 0 0
0 0 0
0 0 0
0 0 0
0 0 0
0 0 0
0 0 0
0 0 0
0 0 0
0 0 0
0 0 0
0 0 0
0 0 0
0 0 0
0 0 0
0 0 0
0 0 0
0 0 0
0 0 0
0 0 0
0 0 0
0 0 0
0 0 0
0 0 0
0 0 0
0 0 0
0 0 0
0 0 0
0 0 0
0 0 0
0 0 0
0 0 0
0 0 0
0 0 0
0 0 0
0 0 0
0 0 0
0 0 0
0 0 0
0 0 0
0 0 0
0 0 0
0 0 0
0 0 0
0 0 0
0 0 0
0 0 0
0 0 0
0 0 0
0 0 0
0 0 0
0 0 0
0 0 0
0 0 0
0 0 0
0 0 0
0 0 0
0 0 0
0 0 0
0 0 0
0 0 0
0 0 0
0 0 0
0 0 0
0 0 0
0 0 0
0 0 0
0 0 0
0 0 0
0 0 0
0 0 0
0 0 0
0 0 0
0 0 0
0 0 0
0 0 0
0 0 0
0 0 0
0 0 0
0 0 0
0 0 0
0 0 0
0 0 0
0 0 0
0 0 0
0 0 0
0 0 0
0 0 0
0 0 0
0 0 0
0 0 0
0 0 0
0 0 0
0 0 0
0 0 0
0 0 0
0 0 0
0 0 0
0 0 0
0 0 0
0 0 0
0 0 0
0 0 0
0 0 0
0 0 0
0 0 0
0 0 0
0 0 0
0 0 0
0 0 0
0 0 0
0 0 0
0 0 0
0 0 0
0 0 0
0 0 0
0 0 0
0 0 0
0 0 0
0 0 0
0 0 0
0 0 0
0 0 0
0 0 0
0 0 0
0 0 0
0 0 0
0 0 0
0 0 0
0 0 0
0 0 0
0 0 0
0 0 0
0 0 0
0 0 0
0 0 0
0 0 0
0 0 0
0 0 0
0 0 0
0 0 0
0 0 0
0 0 0
0 0 0
0 0 0
0 0 0
0 0 0
0 0 0
0 0 0
0 0 0
0 0 0
0 0 0
0 0 0
0 0 0
0 0 0
0 0 0
0 0 0
0 0 0
0 0 0
0 0 0
0 0 0
0 0 0
0 0 0
0 0 0
0 0 0
0 0 0
0 0 0
0 0 0
0 0 0
0 0 0
0 0 0
0 0 0
0 0 0
0 0 0
0 0 0
0 0 0
0 0 0
0 0 0
0 0 0
0 0 0
0 0 0
0 0 0
0 0 0
0 0 0
0 0 0
0 0 0
0 0 0
0 0 0
0 0 0
0 0 0
0 0 0
0 0 0
0 0 0
0 0 0
0 0 0
0 0 0
0 0 0
0 0 0
0 0 0
0 0 0
0 0 0
0 0 0
0 0 0
0 0 0
0 0 0
0 0 0
0 0 0
0 0 0
0 0 0
0 0 0
0 0 0
0 0 0
0 0 0
0 0 0
0 0 0
0 0 0
0 0 0
0 0 0
0 0 0
0 0 0
0 0 0
0 0 0
0 0 0
0 0 0
0 0 0
0 0 0
0 0 0
0 0 0
0 0 0
0 0 0
0 0 0
0 0 0
0 0 0
0 0 0
0 0 0
0 0 0
0 0 0
0 0 0
0 0 0
0 0 0
0 0 0
0 0 0
0 0 0
0 0 0
0 0 0
0 0 0
0 0 0
0 0 0
0 0 0
0 0 0
0 0 0
0 0 0
0 0 0
0 0 0
0 0 0
0 0 0
0 0 0
0 0 0
0 0 0
0 0 0
0 0 0
0 0 0
0 0 0
0 0 0
0 0 0
0 0 0
0 0 0
0 0 0
0 0 0
0 0 0
0 0 0
0 0 0
0 0 0
-0.000126354 -1.27545e-05 0.000168391
-0.000615563 -0.00014662 2.06989e-05
-0.00104638 -2.63557e-05 0.000172675
-0.00186922 -0.000120574 7.05072e-05
-0.00252846 -4.58257e-05 0.00015387
-0.00339781 -0.000100771 8.58735e-05
-0.00408088 -5.06702e-05 0.000128911
-0.00481275 -8.04319e-05 7.9598e-05
-0.00536134 -4.30135e-05 9.95353e-05
-0.00583337 -5.98199e-05 5.71291e-05
-0.00612976 -2.6253e-05 6.64489e-05
-0.00624706 -4.02433e-05 2.18122e-05
-0.00620812 -2.95414e-06 3.18685e-05
-0.00590632 -2.41454e-05 -2.31795e-05
-0.00550552 2.50525e-05 1.17289e-06
-0.0047872 -1.52887e-05 -7.33636e-05
-0.00409931 5.65075e-05 -1.58492e-05
-0.0030893 -1.83803e-05 -0.000121778
-0.00232635 9.05819e-05 -6.13919e-06
-0.00131042 -3.6305e-05 -0.000159664
-0.000783237 0.000133818 4.7729e-05
-0.000179049 -4.65417e-05 -0.000162657
0 0 0
0 0 0
-0.000154419 -0.000135391 0.000131726
-0.000980872 -0.000303589 -1.75534e-05
-0.00174493 -0.000189838 0.000148172
-0.00306181 -0.000212558 5.28284e-05
-0.00420206 -0.000136275 0.000137503
-0.00559226 -0.000148653 7.4499e-05
-0.00674636 -0.000116731 0.000114292
-0.00791619 -0.000138431 6.61687e-05
-0.00882321 -0.000137289 8.01268e-05
-0.0095747 -0.000171165 3.55965e-05
-0.0100476 -0.000189004 3.65762e-05
-0.0102298 -0.000233442 -1.2195e-05
-0.0101377 -0.000256923 -1.22294e-05
-0.00965145 -0.000304992 -7.11027e-05
-0.00895228 -0.000313592 -5.68473e-05
-0.00780694 -0.000351368 -0.000131145
-0.00662109 -0.000314766 -7.99605e-05
-0.00501994 -0.000328453 -0.000177785
-0.00369738 -0.000214866 -5.91235e-05
-0.00208933 -0.000213127 -0.000198387
-0.00117319 -1.26373e-05 3.16432e-05
-0.000160051 -0.000101639 -0.000175348
0 0 0
0 0 0
-0.000149269 -0.000177094 0.000187427
-0.00121842 -0.000391176 1.55947e-05
-0.00222739 -0.000281117 0.000211642
-0.00389387 -0.000318835 9.78309e-05
-0.00534764 -0.000224542 0.000194792
-0.00708229 -0.000241983 0.000118219
-0.00852746 -0.000197157 0.00016272
-0.00997266 -0.000224286 0.000104524
-0.0110924 -0.000218067 0.000120005
-0.0120095 -0.000260108 6.74357e-05
-0.0125801 -0.000278126 6.90178e-05
-0.0127904 -0.000333401 1.25835e-05
-0.0126584 -0.000358054 1.3615e-05
-0.0120476 -0.000417912 -5.46677e-05
-0.0111671 -0.000422428 -3.77444e-05
-0.00975173 -0.000469653 -0.00012562
-0.00827033 -0.000416635 -6.80099e-05
-0.00629755 -0.000435356 -0.000185884
-0.00463558 -0.000291192 -5.26639e-05
-0.00264599 -0.000292972 -0.000219704
-0.00145975 -6.47545e-05 4.29784e-05
-0.000197841 -0.000144018 -0.000195481
0 0 0
0 0 0
-0.000175534 -0.000275882 0.000168378
-0.0013731 -0.000503544 -1.35506e-05
-0.00253457 -0.000431733 0.000196872
-0.00442839 -0.000455186 7.92146e-05
-0.00609484 -0.000368578 0.000181964
-0.0080603 -0.000368537 0.000103821
-0.00970476 -0.000327029 0.000149764
-0.0113338 -0.000345318 8.98804e-05
-0.012597 -0.00034695 0.000104164
-0.0136227 -0.000389188 4.89825e-05
-0.0142555 -0.000420433 4.76627e-05
-0.0144806 -0.000480398 -1.22229e-05
-0.0143138 -0.000520688 -1.47336e-05
-0.0136133 -0.000582049 -8.66702e-05
-0.0125982 -0.000599277 -7.22076e-05
-0.0109936 -0.000635413 -0.000162567
-0.00929857 -0.000587901 -0.00010337
-0.00707035 -0.000576776 -0.000221817
-0.00517484 -0.000434618 -7.91467e-05
-0.00293573 -0.00039192 -0.000247414
-0.00159513 -0.000176772 3.73681e-05
-0.000197478 -0.000190022 -0.000210385
0 0 0
0 0 0
-0.000171639 -0.000283333 0.00019632
-0.0014663 -0.000514717 -3.1077e-06
-0.00272162 -0.000469827 0.000226968
-0.00477477 -0.000502334 9.79454e-05
-0.006577 -0.000424104 0.000209365
-0.00869923 -0.000424989 0.000123432
-0.0104692 -0.000381741 0.000172665
-0.0122186 -0.0003964 0.000106957
-0.01357 -0.000392447 0.000121995
-0.0146638 -0.000428922 6.1923e-05
-0.0153331 -0.000452836 6.03762e-05
-0.0155641 -0.00050577 -4.33665e-06
-0.0153737 -0.00053773 -6.99662e-06
-0.0146114 -0.000591578 -8.47193e-05
-0.0135115 -0.000600977 -6.92113e-05
-0.0117808 -0.000631533 -0.000167159
-0.00995332 -0.000581234 -0.000103776
-0.00755675 -0.000570529 -0.000232516
-0.00551805 -0.000438293 -7.94865e-05
-0.00311967 -0.000401768 -0.000261777
-0.00168582 -0.000211386 4.37439e-05
-0.000216484 -0.000202343 -0.000222192
0 0 0
0 0 0
-0.000187078 -0.000312647 0.000185864
-0.00152287 -0.000529546 -2.23613e-05
-0.00283163 -0.000515005 0.000217462
-0.00497913 -0.000545426 8.32939e-05
-0.0068659 -0.000482688 0.000199969
-0.00908864 -0.000478441 0.000111306
-0.0109403 -0.000439109 0.000163052
-0.0127692 -0.000446163 9.55751e-05
-0.0141791 -0.000440523 0.000111412
-0.0153182 -0.000468219 4.96629e-05
-0.0160113 -0.000487941 4.79252e-05
-0.0162454 -0.00053085 -1.87283e-05
-0.0160372 -0.000557823 -2.1817e-05
-0.0152312 -0.000600133 -0.000101824
-0.0140706 -0.00060632 -8.58075e-05
-0.0122518 -0.000625272 -0.00018613
-0.0103325 -0.000579118 -0.000119544
-0.00782255 -0.000559809 -0.000250912
-0.00569223 -0.000446415 -8.99989e-05
-0.00319692 -0.000403828 -0.000276654
-0.00171742 -0.000245577 4.28269e-05
-0.000218563 -0.000208747 -0.000231658
0 0 0
0 0 0
-0.000183725 -0.000274598 0.00019917
-0.00155117 -0.000465882 -1.94683e-05
-0.00288718 -0.000466831 0.000231016
-0.0050966 -0.000498529 9.01056e-05
-0.00703327 -0.0004497 0.000212138
-0.00932149 -0.000446882 0.000119015
-0.0112228 -0.000412143 0.000173109
-0.0131031 -0.000415748 0.000102421
-0.0145488 -0.000407073 0.00011904
-0.0157168 -0.000426657 5.46435e-05
-0.0164244 -0.000438374 5.30358e-05
-0.01666 -0.000470082 -1.6229e-05
-0.0164407 -0.000487449 -1.92019e-05
-0.0156057 -0.000518574 -0.000102313
-0.0144077 -0.000518995 -8.53984e-05
-0.0125316 -0.000532032 -0.000189762
-0.0105563 -0.000491602 -0.000120347
-0.00797446 -0.000476331 -0.000257164
-0.00579079 -0.000385892 -9.00354e-05
-0.00323857 -0.000353798 -0.000284093
-0.00173544 -0.000229802 4.60623e-05
-0.000227429 -0.00018806 -0.000237874
0 0 0
0 0 0
-0.000191501 -0.000247065 0.000193422
-0.00156647 -0.000403586 -3.03937e-05
-0.00291549 -0.000416149 0.00022524
-0.00515665 -0.000443063 8.0817e-05
-0.00712078 -0.000408188 0.00020622
-0.00944752 -0.000404512 0.000111095
-0.0113787 -0.000376248 0.000167196
-0.0132911 -0.000375973 9.53444e-05
-0.0147594 -0.000366604 0.000113051
-0.0159461 -0.000378479 4.77719e-05
-0.0166632 -0.000384734 4.6742e-05
-0.0168998 -0.000405942 -2.34657e-05
-0.0166732 -0.000416476 -2.59549e-05
-0.0158188 -0.000436875 -0.000110269
-0.014596 -0.000434305 -9.23041e-05
-0.012682 -0.000440574 -0.000198224
-0.0106709 -0.000407596 -0.000126329
-0.00804382 -0.000392872 -0.000265302
-0.00582943 -0.000324424 -9.34427e-05
-0.00324635 -0.00029739 -0.000290859
-0.00173524 -0.000204749 4.63386e-05
-0.0002291 -0.000161418 -0.000242685
0 0 0
0 0 0
-0.000189382 -0.000177835 0.000199184
-0.00157159 -0.000293185 -2.97129e-05
-0.00292497 -0.000306264 0.000230867
-0.00518552 -0.000327847 8.30058e-05
-0.00716406 -0.000304379 0.000211215
-0.00951428 -0.000302248 0.00011381
-0.0114624 -0.00028156 0.000171313
-0.0133945 -0.000280623 9.78596e-05
-0.0148761 -0.000272469 0.000116168
-0.0160744 -0.000279557 4.96022e-05
-0.0167974 -0.00028211 4.88231e-05
-0.0170347 -0.000295554 -2.26433e-05
-0.0168039 -0.000301007 -2.48931e-05
-0.0159377 -0.000313959 -0.000110708
-0.0147004 -0.000310473 -9.20855e-05
-0.0127633 -0.000314205 -0.000199987
-0.0107318 -0.000290514 -0.00012647
-0.00807806 -0.000280962 -0.000268144
-0.00584737 -0.000234411 -9.31384e-05
-0.00324811 -0.000216961 -0.000294172
-0.00173431 -0.000153949 4.77713e-05
-0.000232904 -0.000119735 -0.000245637
0 0 0
0 0 0
-0.000192523 -0.000118315 0.000196607
-0.00157392 -0.000189093 -3.44978e-05
-0.00292858 -0.000200179 0.000228168
-0.00519704 -0.000213465 7.86688e-05
-0.00718217 -0.000200304 0.000208442
-0.00954432 -0.000198516 0.000110061
-0.0115013 -0.00018573 0.000168608
-0.0134443 -0.000184139 9.46083e-05
-0.0149333 -0.00017832 0.000113578
-0.0161384 -0.000181343 4.66445e-05
-0.0168648 -0.000181765 4.63147e-05
-0.0171026 -0.000188515 -2.55242e-05
-0.0168694 -0.00019063 -2.73554e-05
-0.0159963 -0.000197035 -0.000113678
-0.0147507 -0.00019391 -9.43892e-05
-0.0128003 -0.000194904 -0.000203033
-0.0107573 -0.000180183 -0.000128267
-0.00808887 -0.00017363 -0.000271052
-0.00585014 -0.000146172 -9.39483e-05
-0.00324352 -0.000135161 -0.000296642
-0.0017303 -9.82438e-05 4.8094e-05
-0.000233736 -7.53661e-05 -0.000247546
0 0 0
0 0 0
-0.00019181 -3.47236e-05 0.000198199
-0.00157405 -5.83617e-05 -3.43828e-05
-0.00292859 -6.1665e-05 0.00022969
-0.00520094 -6.64308e-05 7.91546e-05
-0.00718868 -6.20589e-05 0.000209787
-0.00955634 -6.17629e-05 0.000110711
-0.0115171 -5.76111e-05 0.00016972
-0.0134651 -5.73353e-05 9.5236e-05
-0.0149575 -5.5509e-05 0.000114428
-0.0161656 -5.67175e-05 4.71108e-05
-0.0168935 -5.69418e-05 4.68941e-05
-0.0171317 -5.93583e-05 -2.53174e-05
-0.0168975 -6.01335e-05 -2.70384e-05
-0.0160213 -6.24677e-05 -0.000113807
-0.014772 -6.15566e-05 -9.42796e-05
-0.0128157 -6.2223e-05 -0.00020352
-0.0107679 -5.76007e-05 -0.000128231
-0.00809298 -5.59425e-05 -0.000271835
-0.00585102 -4.72494e-05 -9.37868e-05
-0.00324145 -4.41487e-05 -0.000297562
-0.0017287 -3.2274e-05 4.84949e-05
-0.000234784 -2.47815e-05 -0.00024841
0 0 0
0 0 0
-0.00019181 3.47236e-05 0.000198199
-0.00157405 5.83617e-05 -3.43828e-05
-0.00292859 6.1665e-05 0.00022969
-0.00520094 6.64308e-05 7.91546e-05
-0.00718868 6.20589e-05 0.000209787
-0.00955634 6.17629e-05 0.000110711
-0.0115171 5.76111e-05 0.00016972
-0.0134651 5.73353e-05 9.5236e-05
-0.0149575 5.5509e-05 0.000114428
-0.0161656 5.67175e-05 4.71108e-05
-0.0168935 5.69418e-05 4.68941e-05
-0.0171317 5.93583e-05 -2.53174e-05
-0.0168975 6.01335e-05 -2.70384e-05
-0.0160213 6.24677e-05 -0.000113807
-0.014772 6.15566e-05 -9.42796e-05
-0.0128157 6.2223e-05 -0.00020352
-0.0107679 5.76007e-05 -0.000128231
-0.00809298 5.59425e-05 -0.000271835
-0.00585102 4.72494e-05 -9.37868e-05
-0.00324145 4.41487e-05 -0.000297562
-0.0017287 3.2274e-05 4.84949e-05
-0.000234784 2.47815e-05 -0.00024841
0 0 0
0 0 0
-0.000192523 0.000118315 0.000196607
-0.00157392 0.000189093 -3.44978e-05
-0.00292858 0.000200179 0.000228168
-0.00519704 0.000213465 7.86688e-05
-0.00718217 0.000200304 0.000208442
-0.00954432 0.000198516 0.000110061
-0.0115013 0.00018573 0.000168608
-0.0134443 0.000184139 9.46083e-05
-0.0149333 0.00017832 0.000113578
-0.0161384 0.000181343 4.66445e-05
-0.0168648 0.000181765 4.63147e-05
-0.0171026 0.000188515 -2.55242e-05
-0.0168694 0.00019063 -2.73554e-05
-0.0159963 0.000197035 -0.000113678
-0.0147507 0.00019391 -9.43892e-05
-0.0128003 0.000194904 -0.000203033
-0.0107573 0.000180183 -0.000128267
-0.00808887 0.00017363 -0.000271052
-0.00585014 0.000146172 -9.39483e-05
-0.00324352 0.000135161 -0.000296642
-0.0017303 9.82438e-05 4.8094e-05
-0.000233736 7.53661e-05 -0.000247546
0 0 0
0 0 0
-0.000189382 0.000177835 0.000199184
-0.00157159 0.000293185 -2.97129e-05
-0.00292497 0.000306264 0.000230867
-0.00518552 0.000327847 8.30058e-05
-0.00716406 0.000304379 0.000211215
-0.00951428 0.000302248 0.00011381
-0.0114624 0.00028156 0.000171313
-0.0133945 0.000280623 9.78596e-05
-0.0148761 0.000272469 0.000116168
-0.0160744 0.000279557 4.96022e-05
-0.0167974 0.00028211 4.88231e-05
-0.0170347 0.000295554 -2.26433e-05
-0.0168039 0.000301007 -2.48931e-05
-0.0159377 0.000313959 -0.000110708
-0.0147004 0.000310473 -9.20855e-05
-0.0127633 0.000314205 -0.000199987
-0.0107318 0.000290514 -0.00012647
-0.00807806 0.000280962 -0.000268144
-0.00584737 0.000234411 -9.31384e-05
-0.00324811 0.000216961 -0.000294172
-0.00173431 0.000153949 4.77713e-05
-0.000232904 0.000119735 -0.000245637
0 0 0
0 0 0
-0.000191501 0.000247065 0.000193422
-0.00156647 0.000403586 -3.03937e-05
-0.00291549 0.000416149 0.00022524
-0.00515665 0.000443063 8.0817e-05
-0.00712078 0.000408188 0.00020622
-0.00944752 0.000404512 0.000111095
-0.0113787 0.000376248 0.000167196
-0.0132911 0.000375973 9.53444e-05
-0.0147594 0.000366604 0.000113051
-0.0159461 0.000378479 4.77719e-05
-0.0166632 0.000384734 4.6742e-05
-0.0168998 0.000405942 -2.34657e-05
-0.0166732 0.000416476 -2.59549e-05
-0.0158188 0.000436875 -0.000110269
-0.014596 0.000434305 -9.23041e-05
-0.012682 0.000440574 -0.000198224
-0.0106709 0.000407596 -0.000126329
-0.00804382 0.000392872 -0.000265302
-0.00582943 0.000324424 -9.34427e-05
-0.00324635 0.00029739 -0.000290859
-0.00173524 0.000204749 4.63386e-05
-0.0002291 0.000161418 -0.000242685
0 0 0
0 0 0
-0.000183725 0.000274598 0.00019917
-0.00155117 0.000465882 -1.94683e-05
-0.00288718 0.000466831 0.000231016
-0.0050966 0.000498529 9.01056e-05
-0.00703327 0.0004497 0.000212138
-0.00932149 0.000446882 0.000119015
-0.0112228 0.000412143 0.000173109
-0.0131031 0.000415748 0.000102421
-0.0145488 0.000407073 0.00011904
-0.0157168 0.000426657 5.46435e-05
-0.0164244 0.000438374 5.30358e-05
-0.01666 0.000470082 -1.6229e-05
-0.0164407 0.000487449 -1.92019e-05
-0.0156057 0.000518574 -0.000102313
-0.0144077 0.000518995 -8.53984e-05
-0.0125316 0.000532032 -0.000189762
-0.0105563 0.000491602 -0.000120347
-0.00797446 0.000476331 -0.000257164
-0.00579079 0.000385892 -9.00354e-05
-0.00323857 0.000353798 -0.000284093
-0.00173544 0.000229802 4.60623e-05
-0.000227429 0.00018806 -0.000237874
0 0 0
0 0 0
-0.000187078 0.000312647 0.000185864
-0.00152287 0.000529546 -2.23613e-05
-0.00283163 0.000515005 0.000217462
-0.00497913 0.000545426 8.32939e-05
-0.0068659 0.000482688 0.000199969
-0.00908864 0.000478441 0.000111306
-0.0109403 0.000439109 0.000163052
-0.0127692 0.000446163 9.55751e-05
-0.0141791 0.000440523 0.000111412
-0.0153182 0.000468219 4.96629e-05
-0.0160113 0.000487941 4.79252e-05
-0.0162454 0.00053085 -1.87283e-05
-0.0160372 0.000557823 -2.1817e-05
-0.0152312 0.000600133 -0.000101824
-0.0140706 0.00060632 -8.58075e-05
-0.0122518 0.000625272 -0.00018613
-0.0103325 0.000579118 -0.000119544
-0.00782255 0.000559809 -0.000250912
-0.00569223 0.000446415 -8.99989e-05
-0.00319692 0.000403828 -0.000276654
-0.00171742 0.000245577 4.28269e-05
-0.000218563 0.000208747 -0.000231658
0 0 0
0 0 0
-0.000171639 0.000283333 0.00019632
-0.0014663 0.000514717 -3.1077e-06
-0.00272162 0.000469827 0.000226968
-0.00477477 0.000502334 9.79454e-05
-0.006577 0.000424104 0.000209365
-0.00869923 0.000424989 0.000123432
-0.0104692 0.000381741 0.000172665
-0.0122186 0.0003964 0.000106957
-0.01357 0.000392447 0.000121995
-0.0146638 0.000428922 6.1923e-05
-0.0153331 0.000452836 6.03762e-05
-0.0155641 0.00050577 -4.33665e-06
-0.0153737 0.00053773 -6.99662e-06
-0.0146114 0.000591578 -8.47193e-05
-0.0135115 0.000600977 -6.92113e-05
-0.0117808 0.000631533 -0.000167159
-0.00995332 0.000581234 -0.000103776
-0.00755675 0.000570529 -0.000232516
-0.00551805 0.000438293 -7.94865e-05
-0.00311967 0.000401768 -0.000261777
-0.00168582 0.000211386 4.37439e-05
-0.000216484 0.000202343 -0.000222192
0 0 0
0 0 0
-0.000175534 0.000275882 0.000168378
-0.0013731 0.000503544 -1.35506e-05
-0.00253457 0.000431733 0.000196872
-0.00442839 0.000455186 7.92146e-05
-0.00609484 0.000368578 0.000181964
-0.0080603 0.000368537 0.000103821
-0.00970476 0.000327029 0.000149764
-0.0113338 0.000345318 8.98804e-05
-0.012597 0.00034695 0.000104164
-0.0136227 0.000389188 4.89825e-05
-0.0142555 0.000420433 4.76627e-05
-0.0144806 0.000480398 -1.22229e-05
-0.0143138 0.000520688 -1.47336e-05
-0.0136133 0.000582049 -8.66702e-05
-0.0125982 0.000599277 -7.22076e-05
-0.0109936 0.000635413 -0.000162567
-0.00929857 0.000587901 -0.00010337
-0.00707035 0.000576776 -0.000221817
-0.00517484 0.000434618 -7.91467e-05
-0.00293573 0.00039192 -0.000247414
-0.00159513 0.000176772 3.73681e-05
-0.000197478 0.000190022 -0.000210385
0 0 0
0 0 0
-0.000149269 0.000177094 0.000187427
-0.00121842 0.000391176 1.55947e-05
-0.00222739 0.000281117 0.000211642
-0.00389387 0.000318835 9.78309e-05
-0.00534764 0.000224542 0.000194792
-0.00708229 0.000241983 0.000118219
-0.00852746 0.000197157 0.00016272
-0.00997266 0.000224286 0.000104524
-0.0110924 0.000218067 0.000120005
-0.0120095 0.000260108 6.74357e-05
-0.0125801 0.000278126 6.90178e-05
-0.0127904 0.000333401 1.25835e-05
-0.0126584 0.000358054 1.3615e-05
-0.0120476 0.000417912 -5.46677e-05
-0.0111671 0.000422428 -3.77444e-05
-0.00975173 0.000469653 -0.00012562
-0.00827033 0.000416635 -6.80099e-05
-0.00629755 0.000435356 -0.000185884
-0.00463558 0.000291192 -5.26639e-05
-0.00264599 0.000292972 -0.000219704
-0.00145975 6.47545e-05 4.29784e-05
-0.000197841 0.000144018 -0.000195481
0 0 0
0 0 0
-0.000154419 0.000135391 0.000131726
-0.000980872 0.000303589 -1.75534e-05
-0.00174493 0.000189838 0.000148172
-0.00306181 0.000212558 5.28284e-05
-0.00420206 0.000136275 0.000137503
-0.00559226 0.000148653 7.4499e-05
-0.00674636 0.000116731 0.000114292
-0.00791619 0.000138431 6.61687e-05
-0.00882321 0.000137289 8.01268e-05
-0.0095747 0.000171165 3.55965e-05
-0.0100476 0.000189004 3.65762e-05
-0.0102298 0.000233442 -1.2195e-05
-0.0101377 0.000256923 -1.22294e-05
-0.00965145 0.000304992 -7.11027e-05
-0.00895228 0.000313592 -5.68473e-05
-0.00780694 0.000351368 -0.000131145
-0.00662109 0.000314766 -7.99605e-05
-0.00501994 0.000328453 -0.000177785
-0.00369738 0.000214866 -5.91235e-05
-0.00208933 0.000213127 -0.000198387
-0.00117319 1.26373e-05 3.16432e-05
-0.000160051 0.000101639 -0.000175348
0 0 0
0 0 0
-0.000126354 1.27545e-05 0.000168391
-0.000615563 0.00014662 2.06989e-05
-0.00104638 2.63557e-05 0.000172675
-0.00186922 0.000120574 7.05072e-05
-0.00252846 4.58257e-05 0.00015387
-0.00339781 0.000100771 8.58735e-05
-0.00408088 5.06702e-05 0.000128911
-0.00481275 8.04319e-05 7.9598e-05
-0.00536134 4.30135e-05 9.95353e-05
-0.00583337 5.98199e-05 5.71291e-05
-0.00612976 2.6253e-05 6.64489e-05
-0.00624706 4.02433e-05 2.18122e-05
-0.00620812 2.95414e-06 3.18685e-05
-0.00590632 2.41454e-05 -2.31795e-05
-0.00550552 -2.50525e-05 1.17289e-06
-0.0047872 1.52887e-05 -7.33636e-05
-0.00409931 -5.65075e-05 -1.58492e-05
-0.0030893 1.83803e-05 -0.000121778
-0.00232635 -9.05819e-05 -6.13919e-06
-0.00131042 3.6305e-05 -0.000159664
-0.000783237 -0.000133818 4.7729e-05
-0.000179049 4.65417e-05 -0.000162657
0 0 0
0 0 0
0 0 0
0 0 0
0 0 0
0 0 0
0 0 0
0 0 0
0 0 0
0 0 0
0 0 0
0 0 0
0 0 0
0 0 0
0 0 0
0 0 0
0 0 0
0 0 0
0 0 0
0 0 0
0 0 0
0 0 0
0 0 0
0 0 0
0 0 0
0 0 0
0 0 0
0 0 0
0 0 0
0 0 0
0 0 0
0 0 0
0 0 0
0 0 0
0 0 0
0 0 0
0 0 0
0 0 0
0 0 0
0 0 0
0 0 0
0 0 0
0 0 0
0 0 0
0 0 0
0 0 0
0 0 0
0 0 0
0 0 0
0 0 0
-2.09927e-05 9.74928e-05 0.000803694
-0.000921448 -4.7282e-05 0.00102925
-0.00170251 0.000108785 0.00144291
-0.00309168 1.76955e-05 0.00149458
-0.00427316 0.000100006 0.00161174
-0.00572195 4.10328e-05 0.00152464
-0.00691781 8.09701e-05 0.00146433
-0.00813437 3.61267e-05 0.00128486
-0.00907856 5.13227e-05 0.00111319
-0.00986584 1.01993e-05 0.000860822
-0.0103681 1.35745e-05 0.000610167
-0.0105717 -3.0487e-05 0.000294707
-0.0104952 -2.68213e-05 -3.58677e-06
-0.0100074 -7.88647e-05 -0.000357896
-0.00930189 -6.02966e-05 -0.000644287
-0.00812146 -0.000125406 -0.000981124
-0.00690219 -7.15259e-05 -0.00114975
-0.00522776 -0.000158595 -0.00138089
-0.00385272 -4.3459e-05 -0.00128712
-0.00214455 -0.000172453 -0.00132981
-0.00119076 4.05442e-05 -0.000846004
-8.49445e-05 -0.000157908 -0.000747008
0 0 0
0 0 0
-5.4542e-05 -0.000141623 0.00113539
-0.00156878 -0.000374117 0.00159008
-0.00298183 -0.000204565 0.00225011
-0.00526539 -0.000211398 0.00240846
-0.00732766 -0.000102296 0.00257926
-0.0097105 -0.000111388 0.00246509
-0.0117554 -8.06007e-05 0.00233714
-0.0137527 -0.000122506 0.00204372
-0.0153375 -0.000149002 0.0017287
-0.016621 -0.000222957 0.00130189
-0.017437 -0.000286636 0.00085421
-0.0177558 -0.000383933 0.000320613
-0.0175839 -0.00046065 -0.000207093
-0.0167696 -0.000562698 -0.000795961
-0.0155314 -0.000614803 -0.00130329
-0.0135935 -0.000688227 -0.00183792
-0.0114801 -0.00065941 -0.00214631
-0.00875194 -0.000669221 -0.00245875
-0.00635696 -0.000502513 -0.00232718
-0.00358596 -0.000456953 -0.00226177
-0.00189536 -0.000140774 -0.00148937
-6.27285e-05 -0.000227842 -0.00114919
0 0 0
0 0 0
-3.21056e-05 -0.000220751 0.00140841
-0.00200837 -0.000531008 0.00202373
-0.00389457 -0.000376035 0.00286936
-0.00682635 -0.000399032 0.00309935
-0.00949387 -0.000266373 0.00330913
-0.0125163 -0.000276209 0.00316431
-0.015119 -0.000229384 0.00298014
-0.0176286 -0.000276701 0.00259082
-0.0196183 -0.000300708 0.0021626
-0.0212108 -0.00038787 0.00159753
-0.0222111 -0.000458722 0.000999928
-0.0225837 -0.000574815 0.000300087
-0.0223332 -0.00066091 -0.000396318
-0.0212888 -0.000781777 -0.00115937
-0.0197009 -0.000834117 -0.00182366
-0.0172621 -0.000917545 -0.002503
-0.014577 -0.000867139 -0.00290385
-0.011158 -0.000872394 -0.00327549
-0.00810308 -0.00065905 -0.0031026
-0.00461943 -0.000601083 -0.0029585
-0.00240826 -0.000240088 -0.00196062
-8.48338e-05 -0.000300681 -0.0014427
0 0 0
0 0 0
-5.63596e-05 -0.000399361 0.00148967
-0.00230338 -0.000751233 0.00218451
-0.00449612 -0.000658238 0.00314974
-0.00786119 -0.000672284 0.00343295
-0.0109432 -0.000546661 0.00367224
-0.0144001 -0.000533568 0.00351371
-0.0173848 -0.000483269 0.00329402
-0.0202388 -0.000515003 0.00284494
-0.0225006 -0.000540465 0.00234147
-0.0242959 -0.000622431 0.00168625
-0.0254129 -0.000701454 0.000987522
-0.0258128 -0.000817675 0.00017803
-0.0254955 -0.000914373 -0.000632294
-0.0242841 -0.00103094 -0.00150835
-0.0224409 -0.00108857 -0.00227591
-0.0196501 -0.00115144 -0.00304146
-0.0165581 -0.00109568 -0.00349476
-0.0126624 -0.00105808 -0.00388336
-0.00915444 -0.000836296 -0.00366288
-0.00519977 -0.000721651 -0.00343523
-0.00267434 -0.000373497 -0.00226569
-7.57091e-05 -0.000347407 -0.001618
0 0 0
0 0 0
-4.55167e-05 -0.000430549 0.0015545
-0.00248512 -0.000795431 0.00228134
-0.00487194 -0.000750369 0.00332806
-0.00853731 -0.000782203 0.00363878
-0.0118908 -0.000670701 0.00390067
-0.0156432 -0.000657989 0.00372836
-0.0188756 -0.000603038 0.00348559
-0.0219575 -0.000625804 0.00299263
-0.0243919 -0.000639235 0.00243815
-0.0263162 -0.000707953 0.00171927
-0.0275034 -0.000771468 0.000952125
-0.0279146 -0.000871874 6.65491e-05
-0.0275492 -0.000951004 -0.000819696
-0.026221 -0.00105048 -0.00177328
-0.0242098 -0.00109116 -0.00260708
-0.0211809 -0.0011403 -0.00343099
-0.0178258 -0.00107655 -0.00391213
-0.0136119 -0.00103691 -0.00431172
-0.00981625 -0.000829611 -0.00404724
-0.00555621 -0.000726317 -0.0037651
-0.00283975 -0.000417874 -0.00246811
-8.21889e-05 -0.000360201 -0.00174326
0 0 0
0 0 0
-5.92271e-05 -0.000481641 0.00154533
-0.00259653 -0.000831122 0.00227547
-0.00509672 -0.00083351 0.00336778
-0.00894477 -0.000869819 0.00369522
-0.0124687 -0.000780857 0.00397357
-0.016411 -0.000762866 0.00379616
-0.0198039 -0.000709556 0.00354278
-0.0230349 -0.00071853 0.00302664
-0.0255822 -0.000722411 0.00244398
-0.0275909 -0.000772338 0.0016892
-0.0288231 -0.000820559 0.000882352
-0.0292397 -0.000898744 -4.75025e-05
-0.0288391 -0.000960503 -0.000978663
-0.0274292 -0.00103588 -0.00197731
-0.0253009 -0.00106266 -0.00284925
-0.0221084 -0.00109119 -0.00370445
-0.0185746 -0.00102802 -0.00419709
-0.014149 -0.000979193 -0.00459539
-0.0101699 -0.000799988 -0.00429456
-0.00572345 -0.000698558 -0.00396994
-0.00290653 -0.000442177 -0.00258688
-7.66168e-05 -0.000352156 -0.00181334
0 0 0
0 0 0
-5.3791e-05 -0.00043202 0.00154191
-0.0026555 -0.000742596 0.00226263
-0.0052171 -0.000768779 0.00338236
-0.00918142 -0.000810713 0.00371584
-0.0128079 -0.00074294 0.00400593
-0.0168723 -0.00072848 0.00382406
-0.0203645 -0.000680211 0.00356558
-0.0236912 -0.000682382 0.00303465
-0.0263087 -0.000677864 0.00243561
-0.028371 -0.000711827 0.00165842
-0.0296309 -0.000742757 0.000827857
-0.0300498 -0.000799202 -0.000129543
-0.0296264 -0.000840653 -0.00108754
-0.0281623 -0.000894459 -0.00211417
-0.0259595 -0.000907419 -0.00300801
-0.0226602 -0.000924679 -0.00388254
-0.0190149 -0.000867713 -0.00437919
-0.0144545 -0.00082732 -0.00477677
-0.0103661 -0.000684309 -0.00444902
-0.00580885 -0.000605883 -0.00409979
-0.00293937 -0.000404928 -0.00265972
-7.77076e-05 -0.000313411 -0.00186087
0 0 0
0 0 0
-6.10789e-05 -0.000386457 0.00151647
-0.00268727 -0.000642659 0.00222365
-0.00527933 -0.000682616 0.00335618
-0.00930568 -0.000720784 0.00369255
-0.0129896 -0.000673023 0.00399094
-0.0171261 -0.000659733 0.00380848
-0.0206777 -0.000619276 0.00354991
-0.0240637 -0.00061522 0.0030133
-0.0267249 -0.000605917 0.00240788
-0.0288214 -0.000625454 0.00162065
-0.0300989 -0.00064292 0.000779168
-0.0305194 -0.000679503 -0.000191582
-0.0300812 -0.000704841 -0.00116272
-0.0285817 -0.000738999 -0.00220329
-0.0263307 -0.000742659 -0.00310751
-0.0229624 -0.000749242 -0.00399095
-0.0192468 -0.000701647 -0.00448719
-0.014603 -0.000666676 -0.00488195
-0.0104515 -0.00055879 -0.00453558
-0.00583362 -0.000497011 -0.00417061
-0.00294261 -0.000347562 -0.00269619
-7.48142e-05 -0.000261549 -0.00188405
0 0 0
0 0 0
-5.86474e-05 -0.000282278 0.00150269
-0.00270012 -0.000471567 0.00219729
-0.00530482 -0.000507973 0.00333651
-0.00936701 -0.000539524 0.00367271
-0.0130818 -0.000508062 0.00397655
-0.017261 -0.000499144 0.00379345
-0.0208468 -0.000469164 0.00353578
-0.0242687 -0.000464422 0.00299613
-0.0269559 -0.000454845 0.00238791
-0.0290733 -0.000465721 0.00159531
-0.0303616 -0.0004744 0.000748331
-0.0307831 -0.000496869 -0.000229718
-0.0303362 -0.00051087 -0.00120764
-0.028815 -0.000531731 -0.00225595
-0.0265355 -0.000531002 -0.00316527
-0.0231252 -0.000533751 -0.00405377
-0.0193689 -0.000499119 -0.00454871
-0.014676 -0.000475408 -0.00494222
-0.0104901 -0.00040205 -0.00458401
-0.00584006 -0.000361212 -0.00421134
-0.00294077 -0.000259489 -0.00271654
-7.47204e-05 -0.00019327 -0.0018991
0 0 0
0 0 0
-6.1786e-05 -0.000185008 0.00148691
-0.0027058 -0.000301544 0.00217231
-0.00531502 -0.000328297 0.0033138
-0.00939287 -0.000348234 0.00364975
-0.0131222 -0.000330727 0.00395703
-0.0173235 -0.000324715 0.00377447
-0.0209272 -0.000305939 0.00351851
-0.0243687 -0.000301346 0.00297858
-0.0270703 -0.000293805 0.00237033
-0.0291997 -0.000298098 0.00157631
-0.0304943 -0.000301126 0.000727846
-0.0309165 -0.000312175 -0.000252749
-0.0304649 -0.00031831 -0.00123301
-0.0289313 -0.000328398 -0.00228431
-0.0266356 -0.000326024 -0.00319528
-0.0232016 -0.000325724 -0.00408558
-0.0194228 -0.000304125 -0.00457894
-0.0147032 -0.000289054 -0.00497125
-0.0105002 -0.000246069 -0.0046062
-0.00583515 -0.000221496 -0.00422951
-0.00293466 -0.000162252 -0.00272416
-7.35802e-05 -0.000119505 -0.00190481
0 0 0
0 0 0
-6.11015e-05 -5.64234e-05 0.00148112