# vtk DataFile Version 3.0
CFD lid driven cavity 3D
ASCII
DATASET STRUCTURED_POINTS
DIMENSIONS 25 25 25
ORIGIN 0 0 0
SPACING 0.0416667 0.0416667 0.0416667
CELL_DATA 13824
VECTORS velocity double
0 0 0
0 0 0
0 0 0
0 0 0
0 0 0
0 0 0
0 0 0
0 0 0
0 0 0
0 0 0
0 0 0
0 0 0
0 0 0
0 0 0
0 0 0
0 0 0
0 0 0
0 0 0
0 0 0
0 0 0
0 0 0
0 0 0
0 0 0
0 0 0
0 0 0
0 0 0
0 0 0
0 0 0
0 0 0
0 0 0
0 0 0
0 0 0
0 0 0
0 0 0
0 0 0
0 0 0
0 0 0
0 0 0
0 0 0
0 0 0
0 0 0
0 0 0
0 0 0
0 0 0
0 0 0
0 0 0
0 0 0
0 0 0
0 0 0
0 0 0
0 0 0
0 0 0
0 0 0
0 0 0
0 0 0
0 0 0
0 0 0
0 0 0
0 0 0
0 0 0
0 0 0
0 0 0
0 0 0
0 0 0
0 0 0
0 0 0
0 0 0
0 0 0
0 0 0
0 0 0
0 0 0
0 0 0
0 0 0
0 0 0
0 0 0
0 0 0
0 0 0
0 0 0
0 0 0
0 0 0
0 0 0
0 0 0
0 0 0
0 0 0
0 0 0
0 0 0
0 0 0
0 0 0
0 0 0
0 0 0
0 0 0
0 0 0
0 0 0
0 0 0
0 0 0
0 0 0
0 0 0
0 0 0
0 0 0
0 0 0
0 0 0
0 0 0
0 0 0
0 0 0
0 0 0
0 0 0
0 0 0
0 0 0
0 0 0
0 0 0
0 0 0
0 0 0
0 0 0
0 0 0
0 0 0
0 0 0
0 0 0
0 0 0
0 0 0
0 0 0
0 0 0
0 0 0
0 0 0
0 0 0
0 0 0
0 0 0
0 0 0
0 0 0
0 0 0
0 0 0
0 0 0
0 0 0
0 0 0
0 0 0
0 0 0
0 0 0
0 0 0
0 0 0
0 0 0
0 0 0
0 0 0
0 0 0
0 0 0
0 0 0
0 0 0
0 0 0
0 0 0
0 0 0
0 0 0
0 0 0
0 0 0
0 0 0
0 0 0
0 0 0
0 0 0
0 0 0
0 0 0
0 0 0
0 0 0
0 0 0
0 0 0
0 0 0
0 0 0
0 0 0
0 0 0
0 0 0
0 0 0
0 0 0
0 0 0
0 0 0
0 0 0
0 0 0
0 0 0
0 0 0
0 0 0
0 0 0
0 0 0
0 0 0
0 0 0
0 0 0
0 0 0
0 0 0
0 0 0
0 0 0
0 0 0
0 0 0
0 0 0
0 0 0
0 0 0
0 0 0
0 0 0
0 0 0
0 0 0
0 0 0
0 0 0
0 0 0
0 0 0
0 0 0
0 0 0
0 0 0
0 0 0
0 0 0
0 0 0
0 0 0
0 0 0
0 0 0
0 0 0
0 0 0
0 0 0
0 0 0
0 0 0
0 0 0
0 0 0
0 0 0
0 0 0
0 0 0
0 0 0
0 0 0
0 0 0
0 0 0
0 0 0
0 0 0
0 0 0
0 0 0
0 0 0
0 0 0
0 0 0
0 0 0
0 0 0
0 0 0
0 0 0
0 0 0
0 0 0
0 0 0
0 0 0
0 0 0
0 0 0
0 0 0
0 0 0
0 0 0
0 0 0
0 0 0
0 0 0
0 0 0
0 0 0
0 0 0
0 0 0
0 0 0
0 0 0
0 0 0
0 0 0
0 0 0
0 0 0
0 0 0
0 0 0
0 0 0
0 0 0
0 0 0
0 0 0
0 0 0
0 0 0
0 0 0
0 0 0
0 0 0
0 0 0
0 0 0
0 0 0
0 0 0
0 0 0
0 0 0
0 0 0
0 0 0
0 0 0
0 0 0
0 0 0
0 0 0
0 0 0
0 0 0
0 0 0
0 0 0
0 0 0
0 0 0
0 0 0
0 0 0
0 0 0
0 0 0
0 0 0
0 0 0
0 0 0
0 0 0
0 0 0
0 0 0
0 0 0
0 0 0
0 0 0
0 0 0
0 0 0
0 0 0
0 0 0
0 0 0
0 0 0
0 0 0
0 0 0
0 0 0
0 0 0
0 0 0
0 0 0
0 0 0
0 0 0
0 0 0
0 0 0
0 0 0
0 0 0
0 0 0
0 0 0
0 0 0
0 0 0
0 0 0
0 0 0
0 0 0
0 0 0
0 0 0
0 0 0
0 0 0
0 0 0
0 0 0
0 0 0
0 0 0
0 0 0
0 0 0
0 0 0
0 0 0
0 0 0
0 0 0
0 0 0
0 0 0
0 0 0
0 0 0
0 0 0
0 0 0
0 0 0
0 0 0
0 0 0
0 0 0
0 0 0
0 0 0
0 0 0
0 0 0
0 0 0
0 0 0
0 0 0
0 0 0
0 0 0
0 0 0
0 0 0
0 0 0
0 0 0
0 0 0
0 0 0
0 0 0
0 0 0
0 0 0
0 0 0
0 0 0
0 0 0
0 0 0
0 0 0
0 0 0
0 0 0
0 0 0
0 0 0
0 0 0
0 0 0
0 0 0
0 0 0
0 0 0
0 0 0
0 0 0
0 0 0
0 0 0
0 0 0
0 0 0
0 0 0
0 0 0
0 0 0
0 0 0
0 0 0
0 0 0
0 0 0
0 0 0
0 0 0
0 0 0
0 0 0
0 0 0
0 0 0
0 0 0
0 0 0
0 0 0
0 0 0
0 0 0
0 0 0
0 0 0
0 0 0
0 0 0
0 0 0
0 0 0
0 0 0
0 0 0
0 0 0
0 0 0
0 0 0
0 0 0
0 0 0
0 0 0
0 0 0
0 0 0
0 0 0
0 0 0
0 0 0
0 0 0
0 0 0
0 0 0
0 0 0
0 0 0
0 0 0
0 0 0
0 0 0
0 0 0
0 0 0
0 0 0
0 0 0
0 0 0
0 0 0
0 0 0
0 0 0
0 0 0
0 0 0
0 0 0
0 0 0
0 0 0
0 0 0
0 0 0
0 0 0
0 0 0
0 0 0
0 0 0
0 0 0
0 0 0
0 0 0
0 0 0
0 0 0
0 0 0
0 0 0
0 0 0
0 0 0
0 0 0
0 0 0
0 0 0
0 0 0
0 0 0
0 0 0
0 0 0
0 0 0
0 0 0
0 0 0
0 0 0
0 0 0
0 0 0
0 0 0
0 0 0
0 0 0
0 0 0
0 0 0
0 0 0
0 0 0
0 0 0
0 0 0
0 0 0
0 0 0
0 0 0
0 0 0
0 0 0
0 0 0
0 0 0
0 0 0
0 0 0
0 0 0
0 0 0
0 0 0
0 0 0
0 0 0
0 0 0
0 0 0
0 0 0
0 0 0
0 0 0
0 0 0
0 0 0
0 0 0
0 0 0
0 0 0
0 0 0
0 0 0
0 0 0
0 0 0
0 0 0
0 0 0
0 0 0
0 0 0
0 0 0
0 0 0
0 0 0
0 0 0
0 0 0
0 0 0
0 0 0
0 0 0
0 0 0
0 0 0
0 0 0
0 0 0
0 0 0
0 0 0
0 0 0
0 0 0
0 0 0
0 0 0
0 0 0
0 0 0
0 0 0
0 0 0
0 0 0
0 0 0
0 0 0
0 0 0
0 0 0
0 0 0
0 0 0
0 0 0
0 0 0
0 0 0
0 0 0
0 0 0
0 0 0
0 0 0
0 0 0
0 0 0
0 0 0
0 0 0
0 0 0
0 0 0
0 0 0
0 0 0
0 0 0
0 0 0
0 0 0
0 0 0
0 0 0
0 0 0
0 0 0
0 0 0
0 0 0
0 0 0
0 0 0
0 0 0
0 0 0
0 0 0
0 0 0
0 0 0
0 0 0
0 0 0
0 0 0
0 0 0
0 0 0
0 0 0
0 0 0
0 0 0
0 0 0
0 0 0
0 0 0
0 0 0
0 0 0
0 0 0
0 0 0
0 0 0
0 0 0
0 0 0
0 0 0
0 0 0
0 0 0
0 0 0
0 0 0
0 0 0
0 0 0
0 0 0
0 0 0
0 0 0
0 0 0
0 0 0
0 0 0
0 0 0
-0.000129734 -9.4961e-06 0.000167131
-0.000642476 -0.000143478 1.90786e-05
-0.00108859 -2.30534e-05 0.000170166
-0.00192462 -0.000116356 6.78913e-05
-0.00258778 -4.19168e-05 0.000149872
-0.00345339 -9.58645e-05 8.17959e-05
-0.00412648 -4.60427e-05 0.00012365
-0.00484307 -7.50302e-05 7.42636e-05
-0.00537419 -3.78883e-05 9.33061e-05
-0.00582861 -5.41159e-05 5.09984e-05
-0.00610926 -2.09567e-05 5.96531e-05
-0.00621658 -3.43937e-05 1.55314e-05
-0.00617249 2.18567e-06 2.49673e-05
-0.00587571 -1.82242e-05 -2.89477e-05
-0.00548397 2.97391e-05 -5.59767e-06
-0.00478453 -9.28895e-06 -7.82292e-05
-0.00411273 6.04828e-05 -2.27604e-05
-0.00312143 -1.23326e-05 -0.000125971
-0.00236507 9.36802e-05 -1.3853e-05
-0.00134738 -3.05666e-05 -0.000163924
-0.000808592 0.000136281 3.9427e-05
-0.000179183 -4.18593e-05 -0.000167244
0 0 0
0 0 0
-0.000154066 -0.000116201 0.000134985
-0.00101319 -0.000272847 -1.42294e-05
-0.00179633 -0.000157528 0.000150513
-0.00312613 -0.000178309 5.50831e-05
-0.00426411 -0.000103921 0.000138069
-0.0056387 -0.000115965 7.4883e-05
-0.00676737 -8.45477e-05 0.000113379
-0.00790395 -0.000104534 6.52481e-05
-0.00877554 -0.000101371 7.85371e-05
-0.00949308 -0.000131428 3.44578e-05
-0.00993763 -0.000145042 3.53466e-05
-0.0101028 -0.000184099 -1.23147e-05
-0.010005 -0.000202692 -1.2198e-05
-0.00953096 -0.000245707 -6.93745e-05
-0.00885461 -0.00025166 -5.55296e-05
-0.00774803 -0.00028756 -0.000127835
-0.00660003 -0.000253889 -7.88207e-05
-0.00503942 -0.000270786 -0.000174657
-0.00373901 -0.000166799 -6.06318e-05
-0.00213823 -0.00017179 -0.000197574
-0.00120958 1.52483e-05 2.68274e-05
-0.000164144 -8.16657e-05 -0.00017664
0 0 0
0 0 0
-0.000152199 -0.000148776 0.000186354
-0.00125105 -0.000342779 1.47082e-05
-0.00227409 -0.000229888 0.00020846
-0.00394256 -0.00026432 9.45158e-05
-0.00538061 -0.000172806 0.000189182
-0.00708269 -0.000189817 0.00011248
-0.0084848 -0.000145734 0.000155487
-0.00987879 -0.000170323 9.74266e-05
-0.0109469 -0.000161017 0.000112234
-0.0118166 -0.000197308 6.03125e-05
-0.0123495 -0.000208959 6.18788e-05
-0.0125385 -0.000256197 6.82699e-06
-0.0124021 -0.00027357 8.12326e-06
-0.0118111 -0.000325948 -5.80455e-05
-0.0109662 -0.00032655 -4.14051e-05
-0.00960743 -0.000371093 -0.00012665
-0.00818348 -0.000322379 -7.11893e-05
-0.00627219 -0.000346088 -0.000186215
-0.00464968 -0.000216197 -5.79142e-05
-0.00268121 -0.000228826 -0.000221601
-0.00148996 -2.17512e-05 3.46711e-05
-0.000198171 -0.00011457 -0.000199121
0 0 0
0 0 0
-0.000175509 -0.000230799 0.000169953
-0.00139767 -0.000428519 -1.10852e-05
-0.00256438 -0.000351218 0.000196301
-0.00444624 -0.000369362 7.88681e-05
-0.00608129 -0.000285695 0.000178968
-0.00799583 -0.000285027 0.000100914
-0.00957934 -0.000244238 0.000145314
-0.0111396 -0.000259293 8.58302e-05
-0.0123363 -0.000256605 9.9666e-05
-0.0133028 -0.000291288 4.55338e-05
-0.0138905 -0.000313798 4.46448e-05
-0.0140919 -0.000363262 -1.33363e-05
-0.013924 -0.000393665 -1.50531e-05
-0.0132525 -0.000445645 -8.43605e-05
-0.0122872 -0.000457606 -6.98349e-05
-0.0107584 -0.000491326 -0.000157315
-0.00914194 -0.000449457 -0.000100503
-0.00699769 -0.000446665 -0.000216277
-0.00516059 -0.000323183 -7.96359e-05
-0.00295897 -0.000297191 -0.000244858
-0.00162168 -0.000110121 3.15403e-05
-0.000199496 -0.000145352 -0.000211163
0 0 0
0 0 0
-0.000173075 -0.000233108 0.000195496
-0.00148303 -0.000429418 -2.00811e-06
-0.00273412 -0.0003775 0.000223545
-0.00475932 -0.000403393 9.51607e-05
-0.00651438 -0.000328088 0.000203331
-0.00856764 -0.000328211 0.000117752
-0.0102602 -0.000285889 0.000165314
-0.0119253 -0.000297281 0.000100289
-0.0131976 -0.000288991 0.00011501
-0.0142225 -0.0003177 5.63296e-05
-0.0148411 -0.000332668 5.54844e-05
-0.0150473 -0.000374822 -6.91576e-06
-0.0148593 -0.000396718 -8.46452e-06
-0.0141347 -0.000441058 -8.30779e-05
-0.0130973 -0.000445299 -6.72738e-05
-0.0114594 -0.000473639 -0.000161858
-0.00972901 -0.000429469 -0.000100946
-0.00743648 -0.000427671 -0.000226579
-0.00547341 -0.000315016 -8.02308e-05
-0.00312758 -0.00029647 -0.000259024
-0.0017059 -0.000136045 3.67662e-05
-0.000216194 -0.000152845 -0.000223455
0 0 0
0 0 0
-0.000186697 -0.000256157 0.00018645
-0.00153064 -0.00043558 -1.89231e-05
-0.00282636 -0.000412189 0.000215426
-0.00493219 -0.000434991 8.24034e-05
-0.00675819 -0.000374566 0.000195428
-0.00889661 -0.000369364 0.00010742
-0.0106571 -0.000330981 0.000157405
-0.0123888 -0.000334996 9.0865e-05
-0.0137093 -0.00032532 0.000106502
-0.0147718 -0.000345686 4.64364e-05
-0.0154101 -0.000356923 4.56595e-05
-0.0156191 -0.000389669 -1.83408e-05
-0.0154171 -0.000407166 -2.00187e-05
-0.0146567 -0.000440746 -9.65513e-05
-0.0135703 -0.000442354 -8.00701e-05
-0.0118595 -0.000459814 -0.000176786
-0.0100535 -0.000419995 -0.000112907
-0.00766531 -0.000409999 -0.000241114
-0.00562537 -0.000315806 -8.77592e-05
-0.00319556 -0.000291548 -0.000270879
-0.00173476 -0.000163007 3.73076e-05
-0.000218855 -0.000154389 -0.000231006
0 0 0
0 0 0
-0.000184034 -0.000222308 0.000198523
-0.00155258 -0.000378093 -1.6216e-05
-0.00286892 -0.000370034 0.000227618
-0.00502501 -0.000394132 8.83558e-05
-0.00689017 -0.000347153 0.000206247
-0.0090816 -0.000343408 0.000114066
-0.0108811 -0.000309732 0.00016627
-0.0126539 -0.000310882 9.67553e-05
-0.0140024 -0.000299004 0.000113246
-0.015088 -0.000312471 5.07827e-05
-0.0157379 -0.000317136 5.0312e-05
-0.0159483 -0.000340306 -1.60169e-05
-0.0157382 -0.000349797 -1.73613e-05
-0.0149553 -0.000373684 -9.66819e-05
-0.0138406 -0.000370493 -7.91668e-05
-0.0120844 -0.000382494 -0.00017962
-0.0102352 -0.000347755 -0.000113031
-0.00778877 -0.000340615 -0.00024643
-0.00570685 -0.000266787 -8.74059e-05
-0.00322971 -0.000250787 -0.000277655
-0.00175031 -0.000152907 4.02065e-05
-0.00022641 -0.000137903 -0.000237147
0 0 0
0 0 0
-0.000190861 -0.000199807 0.000193508
-0.00156272 -0.000325485 -2.56646e-05
-0.00288728 -0.000329362 0.00022261
-0.00506695 -0.000349343 8.02632e-05
-0.00695192 -0.000315644 0.000201198
-0.00917291 -0.000311094 0.000107254
-0.0109945 -0.000283806 0.000161352
-0.0127921 -0.000281701 9.0836e-05
-0.0141576 -0.000269986 0.000108431
-0.0152577 -0.000277161 4.52401e-05
-0.015915 -0.000278002 4.54418e-05
-0.0161266 -0.000292614 -2.16568e-05
-0.0159116 -0.000297119 -2.23919e-05
-0.0151144 -0.000312038 -0.000102727
-0.0139818 -0.00030691 -8.41129e-05
-0.0121968 -0.000312692 -0.000185967
-0.0103214 -0.000284566 -0.000117075
-0.00783996 -0.00027663 -0.000252529
-0.00573547 -0.000221681 -8.93131e-05
-0.00323426 -0.000207926 -0.000282794
-0.00174982 -0.000136798 4.12119e-05
-0.000228242 -0.000116851 -0.000240898
0 0 0
0 0 0
-0.000189073 -0.000142563 0.000198724
-0.0015649 -0.000234412 -2.48608e-05
-0.00289098 -0.000240623 0.000227682
-0.00508433 -0.00025675 8.22524e-05
-0.00697867 -0.000234058 0.000205683
-0.00921695 -0.000231254 0.000109653
-0.0110503 -0.000211403 0.000165047
-0.0128626 -0.000209256 9.30642e-05
-0.0142376 -0.000199593 0.000111269
-0.0153465 -0.000203447 4.69167e-05
-0.0160083 -0.000202287 4.74359e-05
-0.0162207 -0.00021115 -2.07855e-05
-0.0160032 -0.000212458 -2.11912e-05
-0.0151976 -0.000221635 -0.000102874
-0.0140552 -0.000216479 -8.35589e-05
-0.0122534 -0.000219958 -0.00018724
-0.010364 -0.000199814 -0.000116819
-0.00786272 -0.000195107 -0.000254826
-0.00574728 -0.000158179 -8.8776e-05
-0.00323408 -0.000150287 -0.000285704
-0.00174876 -0.000102836 4.25374e-05
-0.000231413 -8.64107e-05 -0.000243727
0 0 0
0 0 0
-0.00019183 -9.52058e-05 0.000196467
-0.00156537 -0.000151203 -2.89471e-05
-0.00289106 -0.000157678 0.000225339
-0.00508913 -0.000167448 7.85e-05
-0.00698714 -0.00015464 0.000203319
-0.00923369 -0.000152412 0.000106436
-0.0110728 -0.000140167 0.000162797
-0.012893 -0.000137905 9.03403e-05
-0.0142732 -0.000131266 0.00010919
-0.015387 -0.000132434 4.45278e-05
-0.0160515 -0.000130728 4.55136e-05
-0.0162644 -0.000134831 -2.30182e-05
-0.0160457 -0.000134572 -2.29735e-05
-0.0152353 -0.000138829 -0.000105093
-0.0140876 -0.000134823 -8.5111e-05
-0.0122763 -0.000135778 -0.000189464
-0.0103794 -0.000123286 -0.000117886
-0.00786762 -0.000119719 -0.000256938
-0.0057473 -9.81046e-05 -8.90298e-05
-0.00322917 -9.2929e-05 -0.000287527
-0.00174521 -6.5552e-05 4.31377e-05
-0.000232283 -5.38903e-05 -0.000245192
0 0 0
0 0 0
-0.00019122 -2.74927e-05 0.00019791
-0.00156477 -4.61571e-05 -2.87626e-05
-0.00288969 -4.79618e-05 0.000226718
-0.0050901 -5.1532e-05 7.89659e-05
-0.00698939 -4.7301e-05 0.00020454
-0.00923971 -4.68594e-05 0.000107028
-0.0110812 -4.29043e-05 0.000163809
-0.0129049 -4.24095e-05 9.09107e-05
-0.0142874 -4.03197e-05 0.000109977
-0.0154035 -4.09134e-05 4.49668e-05
-0.0160691 -4.04345e-05 4.60789e-05
-0.0162824 -4.19709e-05 -2.27883e-05
-0.0160632 -4.19581e-05 -2.26131e-05
-0.0152507 -4.35728e-05 -0.000105135
-0.0141008 -4.23609e-05 -8.49089e-05
-0.0122854 -4.29939e-05 -0.000189812
-0.0103854 -3.9085e-05 -0.000117745
-0.00786911 -3.83799e-05 -0.000257567
-0.00574699 -3.15779e-05 -8.8811e-05
-0.00322696 -3.03806e-05 -0.00028833
-0.00174382 -2.16178e-05 4.35095e-05
-0.000233146 -1.7886e-05 -0.000246012
0 0 0
0 0 0
-0.00019122 2.74927e-05 0.00019791
-0.00156477 4.61571e-05 -2.87626e-05
-0.00288969 4.79618e-05 0.000226718
-0.0050901 5.1532e-05 7.89659e-05
-0.00698939 4.7301e-05 0.00020454
-0.00923971 4.68594e-05 0.000107028
-0.0110812 4.29043e-05 0.000163809
-0.0129049 4.24095e-05 9.09107e-05
-0.0142874 4.03197e-05 0.000109977
-0.0154035 4.09134e-05 4.49668e-05
-0.0160691 4.04345e-05 4.60789e-05
-0.0162824 4.19709e-05 -2.27883e-05
-0.0160632 4.19581e-05 -2.26131e-05
-0.0152507 4.35728e-05 -0.000105135
-0.0141008 4.23609e-05 -8.49089e-05
-0.0122854 4.29939e-05 -0.000189812
-0.0103854 3.9085e-05 -0.000117745
-0.00786911 3.83799e-05 -0.000257567
-0.00574699 3.15779e-05 -8.8811e-05
-0.00322696 3.03806e-05 -0.00028833
-0.00174382 2.16178e-05 4.35095e-05
-0.000233146 1.7886e-05 -0.000246012
0 0 0
0 0 0
-0.00019183 9.52058e-05 0.000196467
-0.00156537 0.000151203 -2.89471e-05
-0.00289106 0.000157678 0.000225339
-0.00508913 0.000167448 7.85e-05
-0.00698714 0.00015464 0.000203319
-0.00923369 0.000152412 0.000106436
-0.0110728 0.000140167 0.000162797
-0.012893 0.000137905 9.03403e-05
-0.0142732 0.000131266 0.00010919
-0.015387 0.000132434 4.45278e-05
-0.0160515 0.000130728 4.55136e-05
-0.0162644 0.000134831 -2.30182e-05
-0.0160457 0.000134572 -2.29735e-05
-0.0152353 0.000138829 -0.000105093
-0.0140876 0.000134823 -8.5111e-05
-0.0122763 0.000135778 -0.000189464
-0.0103794 0.000123286 -0.000117886
-0.00786762 0.000119719 -0.000256938
-0.0057473 9.81046e-05 -8.90298e-05
-0.00322917 9.2929e-05 -0.000287527
-0.00174521 6.5552e-05 4.31377e-05
-0.000232283 5.38903e-05 -0.000245192
0 0 0
0 0 0
-0.000189073 0.000142563 0.000198724
-0.0015649 0.000234412 -2.48608e-05
-0.00289098 0.000240623 0.000227682
-0.00508433 0.00025675 8.22524e-05
-0.00697867 0.000234058 0.000205683
-0.00921695 0.000231254 0.000109653
-0.0110503 0.000211403 0.000165047
-0.0128626 0.000209256 9.30642e-05
-0.0142376 0.000199593 0.000111269
-0.0153465 0.000203447 4.69167e-05
-0.0160083 0.000202287 4.74359e-05
-0.0162207 0.00021115 -2.07855e-05
-0.0160032 0.000212458 -2.11912e-05
-0.0151976 0.000221635 -0.000102874
-0.0140552 0.000216479 -8.35589e-05
-0.0122534 0.000219958 -0.00018724
-0.010364 0.000199814 -0.000116819
-0.00786272 0.000195107 -0.000254826
-0.00574728 0.000158179 -8.8776e-05
-0.00323408 0.000150287 -0.000285704
-0.00174876 0.000102836 4.25374e-05
-0.000231413 8.64107e-05 -0.000243727
0 0 0
0 0 0
-0.000190861 0.000199807 0.000193508
-0.00156272 0.000325485 -2.56646e-05
-0.00288728 0.000329362 0.00022261
-0.00506695 0.000349343 8.02632e-05
-0.00695192 0.000315644 0.000201198
-0.00917291 0.000311094 0.000107254
-0.0109945 0.000283806 0.000161352
-0.0127921 0.000281701 9.0836e-05
-0.0141576 0.000269986 0.000108431
-0.0152577 0.000277161 4.52401e-05
-0.015915 0.000278002 4.54418e-05
-0.0161266 0.000292614 -2.16568e-05
-0.0159116 0.000297119 -2.23919e-05
-0.0151144 0.000312038 -0.000102727
-0.0139818 0.00030691 -8.41129e-05
-0.0121968 0.000312692 -0.000185967
-0.0103214 0.000284566 -0.000117075
-0.00783996 0.00027663 -0.000252529
-0.00573547 0.000221681 -8.93131e-05
-0.00323426 0.000207926 -0.000282794
-0.00174982 0.000136798 4.12119e-05
-0.000228242 0.000116851 -0.000240898
0 0 0
0 0 0
-0.000184034 0.000222308 0.000198523
-0.00155258 0.000378093 -1.6216e-05
-0.00286892 0.000370034 0.000227618
-0.00502501 0.000394132 8.83558e-05
-0.00689017 0.000347153 0.000206247
-0.0090816 0.000343408 0.000114066
-0.0108811 0.000309732 0.00016627
-0.0126539 0.000310882 9.67553e-05
-0.0140024 0.000299004 0.000113246
-0.015088 0.000312471 5.07827e-05
-0.0157379 0.000317136 5.0312e-05
-0.0159483 0.000340306 -1.60169e-05
-0.0157382 0.000349797 -1.73613e-05
-0.0149553 0.000373684 -9.66819e-05
-0.0138406 0.000370493 -7.91668e-05
-0.0120844 0.000382494 -0.00017962
-0.0102352 0.000347755 -0.000113031
-0.00778877 0.000340615 -0.00024643
-0.00570685 0.000266787 -8.74059e-05
-0.00322971 0.000250787 -0.000277655
-0.00175031 0.000152907 4.02065e-05
-0.00022641 0.000137903 -0.000237147
0 0 0
0 0 0
-0.000186697 0.000256157 0.00018645
-0.00153064 0.00043558 -1.89231e-05
-0.00282636 0.000412189 0.000215426
-0.00493219 0.000434991 8.24034e-05
-0.00675819 0.000374566 0.000195428
-0.00889661 0.000369364 0.00010742
-0.0106571 0.000330981 0.000157405
-0.0123888 0.000334996 9.0865e-05
-0.0137093 0.00032532 0.000106502
-0.0147718 0.000345686 4.64364e-05
-0.0154101 0.000356923 4.56595e-05
-0.0156191 0.000389669 -1.83408e-05
-0.0154171 0.000407166 -2.00187e-05
-0.0146567 0.000440746 -9.65513e-05
-0.0135703 0.000442354 -8.00701e-05
-0.0118595 0.000459814 -0.000176786
-0.0100535 0.000419995 -0.000112907
-0.00766531 0.000409999 -0.000241114
-0.00562537 0.000315806 -8.77592e-05
-0.00319556 0.000291548 -0.000270879
-0.00173476 0.000163007 3.73076e-05
-0.000218855 0.000154389 -0.000231006
0 0 0
0 0 0
-0.000173075 0.000233108 0.000195496
-0.00148303 0.000429418 -2.00811e-06
-0.00273412 0.0003775 0.000223545
-0.00475932 0.000403393 9.51607e-05
-0.00651438 0.000328088 0.000203331
-0.00856764 0.000328211 0.000117752
-0.0102602 0.000285889 0.000165314
-0.0119253 0.000297281 0.000100289
-0.0131976 0.000288991 0.00011501
-0.0142225 0.0003177 5.63296e-05
-0.0148411 0.000332668 5.54844e-05
-0.0150473 0.000374822 -6.91576e-06
-0.0148593 0.000396718 -8.46452e-06
-0.0141347 0.000441058 -8.30779e-05
-0.0130973 0.000445299 -6.72738e-05
-0.0114594 0.000473639 -0.000161858
-0.00972901 0.000429469 -0.000100946
-0.00743648 0.000427671 -0.000226579
-0.00547341 0.000315016 -8.02308e-05
-0.00312758 0.00029647 -0.000259024
-0.0017059 0.000136045 3.67662e-05
-0.000216194 0.000152845 -0.000223455
0 0 0
0 0 0
-0.000175509 0.000230799 0.000169953
-0.00139767 0.000428519 -1.10852e-05
-0.00256438 0.000351218 0.000196301
-0.00444624 0.000369362 7.88681e-05
-0.00608129 0.000285695 0.000178968
-0.00799583 0.000285027 0.000100914
-0.00957934 0.000244238 0.000145314
-0.0111396 0.000259293 8.58302e-05
-0.0123363 0.000256605 9.9666e-05
-0.0133028 0.000291288 4.55338e-05
-0.0138905 0.000313798 4.46448e-05
-0.0140919 0.000363262 -1.33363e-05
-0.013924 0.000393665 -1.50531e-05
-0.0132525 0.000445645 -8.43605e-05
-0.0122872 0.000457606 -6.98349e-05
-0.0107584 0.000491326 -0.000157315
-0.00914194 0.000449457 -0.000100503
-0.00699769 0.000446665 -0.000216277
-0.00516059 0.000323183 -7.96359e-05
-0.00295897 0.000297191 -0.000244858
-0.00162168 0.000110121 3.15403e-05
-0.000199496 0.000145352 -0.000211163
0 0 0
0 0 0
-0.000152199 0.000148776 0.000186354
-0.00125105 0.000342779 1.47082e-05
-0.00227409 0.000229888 0.00020846
-0.00394256 0.00026432 9.45158e-05
-0.00538061 0.000172806 0.000189182
-0.00708269 0.000189817 0.00011248
-0.0084848 0.000145734 0.000155487
-0.00987879 0.000170323 9.74266e-05
-0.0109469 0.000161017 0.000112234
-0.0118166 0.000197308 6.03125e-05
-0.0123495 0.000208959 6.18788e-05
-0.0125385 0.000256197 6.82699e-06
-0.0124021 0.00027357 8.12326e-06
-0.0118111 0.000325948 -5.80455e-05
-0.0109662 0.00032655 -4.14051e-05
-0.00960743 0.000371093 -0.00012665
-0.00818348 0.000322379 -7.11893e-05
-0.00627219 0.000346088 -0.000186215
-0.00464968 0.000216197 -5.79142e-05
-0.00268121 0.000228826 -0.000221601
-0.00148996 2.17512e-05 3.46711e-05
-0.000198171 0.00011457 -0.000199121
0 0 0
0 0 0
-0.000154066 0.000116201 0.000134985
-0.00101319 0.000272847 -1.42294e-05
-0.00179633 0.000157528 0.000150513
-0.00312613 0.000178309 5.50831e-05
-0.00426411 0.000103921 0.000138069
-0.0056387 0.000115965 7.4883e-05
-0.00676737 8.45477e-05 0.000113379
-0.00790395 0.000104534 6.52481e-05
-0.00877554 0.000101371 7.85371e-05
-0.00949308 0.000131428 3.44578e-05
-0.00993763 0.000145042 3.53466e-05
-0.0101028 0.000184099 -1.23147e-05
-0.010005 0.000202692 -1.2198e-05
-0.00953096 0.000245707 -6.93745e-05
-0.00885461 0.00025166 -5.55296e-05
-0.00774803 0.00028756 -0.000127835
-0.00660003 0.000253889 -7.88207e-05
-0.00503942 0.000270786 -0.000174657
-0.00373901 0.000166799 -6.06318e-05
-0.00213823 0.00017179 -0.000197574
-0.00120958 -1.52483e-05 2.68274e-05
-0.000164144 8.16657e-05 -0.00017664
0 0 0
0 0 0
-0.000129734 9.4961e-06 0.000167131
-0.000642476 0.000143478 1.90786e-05
-0.00108859 2.30534e-05 0.000170166
-0.00192462 0.000116356 6.78913e-05
-0.00258778 4.19168e-05 0.000149872
-0.00345339 9.58645e-05 8.17959e-05
-0.00412648 4.60427e-05 0.00012365
-0.00484307 7.50302e-05 7.42636e-05
-0.00537419 3.78883e-05 9.33061e-05
-0.00582861 5.41159e-05 5.09984e-05
-0.00610926 2.09567e-05 5.96531e-05
-0.00621658 3.43937e-05 1.55314e-05
-0.00617249 -2.18567e-06 2.49673e-05
-0.00587571 1.82242e-05 -2.89477e-05
-0.00548397 -2.97391e-05 -5.59767e-06
-0.00478453 9.28895e-06 -7.82292e-05
-0.00411273 -6.04828e-05 -2.27604e-05
-0.00312143 1.23326e-05 -0.000125971
-0.00236507 -9.36802e-05 -1.3853e-05
-0.00134738 3.05666e-05 -0.000163924
-0.000808592 -0.000136281 3.9427e-05
-0.000179183 4.18593e-05 -0.000167244
0 0 0
0 0 0
0 0 0
0 0 0
0 0 0
0 0 0
0 0 0
0 0 0
0 0 0
0 0 0
0 0 0
0 0 0
0 0 0
0 0 0
0 0 0
0 0 0
0 0 0
0 0 0
0 0 0
0 0 0
0 0 0
0 0 0
0 0 0
0 0 0
0 0 0
0 0 0
0 0 0
0 0 0
0 0 0
0 0 0
0 0 0
0 0 0
0 0 0
0 0 0
0 0 0
0 0 0
0 0 0
0 0 0
0 0 0
0 0 0
0 0 0
0 0 0
0 0 0
0 0 0
0 0 0
0 0 0
0 0 0
0 0 0
0 0 0
0 0 0
-2.55599e-05 0.000100498 0.000808706
-0.000959505 -4.43231e-05 0.00103346
-0.00176165 0.000110982 0.00143548
-0.00316469 2.00907e-05 0.00147512
-0.0043449 0.000101008 0.00157722
-0.00577849 4.22337e-05 0.00147774
-0.00694882 8.1256e-05 0.00140604
-0.00813149 3.68654e-05 0.00121873
-0.00903894 5.18483e-05 0.0010418
-0.00979045 1.16565e-05 0.000788031
-0.010262 1.53758e-05 0.000539081
-0.0104459 -2.72087e-05 0.000229196
-0.010361 -2.31082e-05 -6.15539e-05
-0.00988306 -7.33217e-05 -0.000405773
-0.00919819 -5.50571e-05 -0.000684215
-0.00805564 -0.000118272 -0.00101313
-0.00687342 -6.64464e-05 -0.0011826
-0.00524041 -0.000151693 -0.00141476
-0.00388766 -4.07476e-05 -0.00133548
-0.00218778 -0.000167571 -0.00138311
-0.00122155 4.05997e-05 -0.000912681
-8.27873e-05 -0.000155075 -0.000790967
0 0 0
0 0 0
-5.49142e-05 -0.000110247 0.00114701
-0.00161284 -0.00032243 0.00159954
-0.00304953 -0.000149798 0.00223859
-0.00534065 -0.000154385 0.00237497
-0.00738515 -4.88248e-05 0.00252011
-0.0097263 -5.8525e-05 0.00238536
-0.0117131 -2.87785e-05 0.00224022
-0.0136401 -6.82058e-05 0.00193646
-0.0151525 -9.07873e-05 0.00161688
-0.0163682 -0.000157763 0.00119273
-0.0171289 -0.000213027 0.000753989
-0.0174143 -0.000300038 0.000235882
-0.0172328 -0.000366789 -0.000272507
-0.0164419 -0.000459169 -0.000839072
-0.0152509 -0.000505359 -0.00132767
-0.0133894 -0.000575538 -0.00184694
-0.0113562 -0.000551351 -0.00215448
-0.00871376 -0.000568365 -0.00247194
-0.00637532 -0.000419004 -0.00236589
-0.00363551 -0.000387914 -0.00231687
-0.00193717 -9.61525e-05 -0.00156999
-6.51076e-05 -0.00019733 -0.00120349
0 0 0
0 0 0
-3.63642e-05 -0.000172109 0.00141316
-0.00204885 -0.000446644 0.00202134
-0.00394621 -0.000285049 0.0028355
-0.00686233 -0.000303328 0.00303495
-0.00948362 -0.000175214 0.00321119
-0.0124298 -0.000185579 0.00304132
-0.0149385 -0.000139907 0.0028383
-0.0173417 -0.000183255 0.00244048
-0.0192264 -0.000201105 0.0020126
-0.0207243 -0.000277658 0.00145809
-0.0216508 -0.000335838 0.000879869
-0.0219815 -0.000436678 0.000208002
-0.0217241 -0.000508099 -0.000455532
-0.0207182 -0.000614905 -0.00118278
-0.0192033 -0.000658805 -0.00181673
-0.0168765 -0.000737941 -0.00247234
-0.014312 -0.000694645 -0.0028696
-0.0110214 -0.000711252 -0.00324853
-0.00805995 -0.00052389 -0.00311057
-0.00463797 -0.000489153 -0.00299347
-0.00243664 -0.000166476 -0.00203547
-8.33875e-05 -0.000252382 -0.00149517
0 0 0
0 0 0
-5.74069e-05 -0.000323272 0.00149502
-0.00232707 -0.000622383 0.00218043
-0.00451191 -0.000517133 0.00310556
-0.00783237 -0.000522741 0.00335224
-0.0108358 -0.000401393 0.00355271
-0.0141799 -0.000388352 0.00336729
-0.0170347 -0.000338979 0.00312944
-0.0197479 -0.000365534 0.00267568
-0.0218753 -0.000382798 0.00217903
-0.0235528 -0.00045119 0.00154341
-0.0245814 -0.000513786 0.000875219
-0.0249347 -0.000610796 0.000106403
-0.0246167 -0.000688809 -0.000657596
-0.0234613 -0.000788315 -0.00148491
-0.0217188 -0.000835643 -0.00221118
-0.019077 -0.000894783 -0.00294561
-0.016147 -0.000848728 -0.00339331
-0.0124239 -0.000828093 -0.0037927
-0.00904807 -0.000639987 -0.00361759
-0.00518873 -0.000558507 -0.00342994
-0.0026923 -0.000260671 -0.00231818
-7.66787e-05 -0.00027423 -0.00165838
0 0 0
0 0 0
-4.78941e-05 -0.000344179 0.00155764
-0.00249146 -0.000647266 0.00227388
-0.00485 -0.000586297 0.00327294
-0.00843943 -0.00060717 0.00354298
-0.0116824 -0.000499451 0.00376245
-0.0152867 -0.000486463 0.00356309
-0.0183565 -0.00043262 0.00330413
-0.0212671 -0.000450146 0.00281126
-0.0235422 -0.000455309 0.00227049
-0.0253299 -0.000510145 0.00158019
-0.026418 -0.00055691 0.000854198
-0.0267803 -0.000637762 2.10487e-05
-0.0264214 -0.000698041 -0.000806734
-0.0251659 -0.000780445 -0.00170002
-0.0232806 -0.000811214 -0.00248296
-0.0204337 -0.000857243 -0.00326925
-0.0172775 -0.000804232 -0.00374324
-0.0132757 -0.000782818 -0.00415668
-0.00964731 -0.00061092 -0.00394731
-0.00551356 -0.000543251 -0.0037172
-0.00284497 -0.00028861 -0.00249575
-8.18186e-05 -0.000277559 -0.00177021
0 0 0
0 0 0
-5.95027e-05 -0.000386111 0.00155105
-0.00258474 -0.000669878 0.00227136
-0.00503819 -0.000653135 0.00331058
-0.00878305 -0.000676625 0.00359476
-0.0121691 -0.000590285 0.00382832
-0.0159333 -0.000571635 0.00362431
-0.0191364 -0.000519518 0.00335671
-0.0221711 -0.000523761 0.00284482
-0.024539 -0.000520136 0.00228162
-0.0263963 -0.000557234 0.00156277
-0.0275213 -0.000589932 0.000805651
-0.0278884 -0.000650033 -6.23625e-05
-0.0275016 -0.00069445 -0.000925377
-0.0261797 -0.000754454 -0.00185458
-0.0241996 -0.000772664 -0.00266814
-0.0212181 -0.00079936 -0.0034808
-0.0179151 -0.000747277 -0.00396543
-0.0137357 -0.000716925 -0.00438062
-0.00995356 -0.000572079 -0.00414359
-0.00565943 -0.000506124 -0.00388174
-0.00290492 -0.000302625 -0.00259006
-7.78025e-05 -0.000262755 -0.00182677
0 0 0
0 0 0
-5.4439e-05 -0.000342769 0.00154931
-0.00263003 -0.000591193 0.00226181
-0.00513064 -0.000597951 0.00332452
-0.00896935 -0.000626933 0.00361331
-0.0124363 -0.000560916 0.003857
-0.0162987 -0.000545713 0.00364921
-0.0195799 -0.000498844 0.00337822
-0.0226908 -0.000497308 0.00285493
-0.0251138 -0.000486859 0.00227985
-0.0270136 -0.000510248 0.00154426
-0.0281606 -0.000528385 0.000769933
-0.02853 -0.000569799 -0.000118512
-0.0281265 -0.000596964 -0.0010011
-0.0267628 -0.00063822 -0.00195148
-0.0247258 -0.000644529 -0.0027814
-0.0216604 -0.000660798 -0.00360976
-0.0182707 -0.000613868 -0.00409794
-0.0139831 -0.000589649 -0.00451478
-0.0101144 -0.000476376 -0.0042577
-0.00572908 -0.000429025 -0.00397957
-0.00293278 -0.000274617 -0.00264346
-7.86423e-05 -0.000230414 -0.00186356
0 0 0
0 0 0
-6.05243e-05 -0.000306895 0.00152733
-0.00265129 -0.000509264 0.00222842
-0.00517221 -0.000531043 0.00330153
-0.00905704 -0.000557358 0.00359249
-0.012566 -0.000510424 0.00384336
-0.0164833 -0.000496373 0.00363547
-0.0198087 -0.000457296 0.00336546
-0.0229649 -0.000450625 0.00283869
-0.0254207 -0.000437077 0.00226012
-0.0273469 -0.000448657 0.00151821
-0.0285077 -0.000456457 0.000737247
-0.0288789 -0.000481608 -0.000159839
-0.0284653 -0.000496166 -0.00105075
-0.0270757 -0.000520972 -0.00201051
-0.0250039 -0.000519987 -0.00284715
-0.0218865 -0.000526389 -0.00368206
-0.0184451 -0.000487287 -0.00416969
-0.0140936 -0.000465596 -0.00458551
-0.010178 -0.000381666 -0.00431486
-0.0057458 -0.000345205 -0.00402697
-0.00293466 -0.000233819 -0.00266562
-7.67026e-05 -0.000188806 -0.00187874
0 0 0
0 0 0
-5.81737e-05 -0.000222406 0.00151595
-0.00265775 -0.000370721 0.00220643
-0.00518502 -0.000392733 0.0032848
-0.00909488 -0.000414902 0.00357531
-0.0126244 -0.000383802 0.00383091
-0.0165729 -0.000374275 0.00362274
-0.0199223 -0.000345508 0.00335424
-0.0231049 -0.000339125 0.00282583
-0.0255794 -0.000326842 0.00224627
-0.0275212 -0.000332328 0.00150132
-0.0286902 -0.000334442 0.000717544
-0.0290628 -0.000349067 -0.000183883
-0.0286439 -0.00035573 -0.00107855
-0.027239 -0.000370251 -0.0020432
-0.0251478 -0.000366544 -0.00288266
-0.0220001 -0.000369405 -0.00372115
-0.0185304 -0.000341013 -0.00420747
-0.0141428 -0.000326816 -0.00462324
-0.0102037 -0.000270547 -0.00434411
-0.00574783 -0.000247917 -0.00405239
-0.0029324 -0.00017377 -0.00267668
-7.66706e-05 -0.000138638 -0.00188856
0 0 0
0 0 0
-6.07859e-05 -0.000146365 0.00150244
-0.00265955 -0.000237181 0.00218525
-0.00518776 -0.000254489 0.00326518
-0.00910712 -0.000268383 0.00355536
-0.0126454 -0.00025091 0.00381393
-0.0166089 -0.000244496 0.00360644
-0.0199702 -0.000226539 0.0033399
-0.0231668 -0.000221095 0.0028119
-0.0256513 -0.000212114 0.00223321
-0.0276019 -0.000213365 0.00148804
-0.0287757 -0.000212671 0.000704174
-0.0291492 -0.000219233 -0.000198225
-0.0287276 -0.0002212 -0.00109361
-0.0273144 -0.000227715 -0.0020597
-0.0252126 -0.000223774 -0.00289957
-0.0220484 -0.000223723 -0.00373907
-0.0185638 -0.000206005 -0.00422387
-0.0141574 -0.000196722 -0.00463914
-0.0102074 -0.000164031 -0.00435516
-0.00574156 -0.000150476 -0.00406165
-0.00292687 -0.000108019 -0.00267892
-7.59744e-05 -8.47606e-05 -0.00189121
0 0 0
0 0 0
-6.01132e-05 -4.39881e-05 0.00149766