# vtk DataFile Version 3.0
CFD lid driven cavity 3D
ASCII
DATASET STRUCTURED_POINTS
DIMENSIONS 25 25 25
ORIGIN 0 0 0
SPACING 0.0416667 0.0416667 0.0416667
CELL_DATA 13824
VECTORS velocity double
0 0 0
0 0 0
0 0 0
0 0 0
0 0 0
0 0 0
0 0 0
0 0 0
0 0 0
0 0 0
0 0 0
0 0 0
0 0 0
0 0 0
0 0 0
0 0 0
0 0 0
0 0 0
0 0 0
0 0 0
0 0 0
0 0 0
0 0 0
0 0 0
0 0 0
0 0 0
0 0 0
0 0 0
0 0 0
0 0 0
0 0 0
0 0 0
0 0 0
0 0 0
0 0 0
0 0 0
0 0 0
0 0 0
0 0 0
0 0 0
0 0 0
0 0 0
0 0 0
0 0 0
0 0 0
0 0 0
0 0 0
0 0 0
0 0 0
0 0 0
0 0 0
0 0 0
0 0 0
0 0 0
0 0 0
0 0 0
0 0 0
0 0 0
0 0 0
0 0 0
0 0 0
0 0 0
0 0 0
0 0 0
0 0 0
0 0 0
0 0 0
0 0 0
0 0 0
0 0 0
0 0 0
0 0 0
0 0 0
0 0 0
0 0 0
0 0 0
0 0 0
0 0 0
0 0 0
0 0 0
0 0 0
0 0 0
0 0 0
0 0 0
0 0 0
0 0 0
0 0 0
0 0 0
0 0 0
0 0 0
0 0 0
0 0 0
0 0 0
0 0 0
0 0 0
0 0 0
0 0 0
0 0 0
0 0 0
0 0 0
0 0 0
0 0 0
0 0 0
0 0 0
0 0 0
0 0 0
0 0 0
0 0 0
0 0 0
0 0 0
0 0 0
0 0 0
0 0 0
0 0 0
0 0 0
0 0 0
0 0 0
0 0 0
0 0 0
0 0 0
0 0 0
0 0 0
0 0 0
0 0 0
0 0 0
0 0 0
0 0 0
0 0 0
0 0 0
0 0 0
0 0 0
0 0 0
0 0 0
0 0 0
0 0 0
0 0 0
0 0 0
0 0 0
0 0 0
0 0 0
0 0 0
0 0 0
0 0 0
0 0 0
0 0 0
0 0 0
0 0 0
0 0 0
0 0 0
0 0 0
0 0 0
0 0 0
0 0 0
0 0 0
0 0 0
0 0 0
0 0 0
0 0 0
0 0 0
0 0 0
0 0 0
0 0 0
0 0 0
0 0 0
0 0 0
0 0 0
0 0 0
0 0 0
0 0 0
0 0 0
0 0 0
0 0 0
0 0 0
0 0 0
0 0 0
0 0 0
0 0 0
0 0 0
0 0 0
0 0 0
0 0 0
0 0 0
0 0 0
0 0 0
0 0 0
0 0 0
0 0 0
0 0 0
0 0 0
0 0 0
0 0 0
0 0 0
0 0 0
0 0 0
0 0 0
0 0 0
0 0 0
0 0 0
0 0 0
0 0 0
0 0 0
0 0 0
0 0 0
0 0 0
0 0 0
0 0 0
0 0 0
0 0 0
0 0 0
0 0 0
0 0 0
0 0 0
0 0 0
0 0 0
0 0 0
0 0 0
0 0 0
0 0 0
0 0 0
0 0 0
0 0 0
0 0 0
0 0 0
0 0 0
0 0 0
0 0 0
0 0 0
0 0 0
0 0 0
0 0 0
0 0 0
0 0 0
0 0 0
0 0 0
0 0 0
0 0 0
0 0 0
0 0 0
0 0 0
0 0 0
0 0 0
0 0 0
0 0 0
0 0 0
0 0 0
0 0 0
0 0 0
0 0 0
0 0 0
0 0 0
0 0 0
0 0 0
0 0 0
0 0 0
0 0 0
0 0 0
0 0 0
0 0 0
0 0 0
0 0 0
0 0 0
0 0 0
0 0 0
0 0 0
0 0 0
0 0 0
0 0 0
0 0 0
0 0 0
0 0 0
0 0 0
0 0 0
0 0 0
0 0 0
0 0 0
0 0 0
0 0 0
0 0 0
0 0 0
0 0 0
0 0 0
0 0 0
0 0 0
0 0 0
0 0 0
0 0 0
0 0 0
0 0 0
0 0 0
0 0 0
0 0 0
0 0 0
0 0 0
0 0 0
0 0 0
0 0 0
0 0 0
0 0 0
0 0 0
0 0 0
0 0 0
0 0 0
0 0 0
0 0 0
0 0 0
0 0 0
0 0 0
0 0 0
0 0 0
0 0 0
0 0 0
0 0 0
0 0 0
0 0 0
0 0 0
0 0 0
0 0 0
0 0 0
0 0 0
0 0 0
0 0 0
0 0 0
0 0 0
0 0 0
0 0 0
0 0 0
0 0 0
0 0 0
0 0 0
0 0 0
0 0 0
0 0 0
0 0 0
0 0 0
0 0 0
0 0 0
0 0 0
0 0 0
0 0 0
0 0 0
0 0 0
0 0 0
0 0 0
0 0 0
0 0 0
0 0 0
0 0 0
0 0 0
0 0 0
0 0 0
0 0 0
0 0 0
0 0 0
0 0 0
0 0 0
0 0 0
0 0 0
0 0 0
0 0 0
0 0 0
0 0 0
0 0 0
0 0 0
0 0 0
0 0 0
0 0 0
0 0 0
0 0 0
0 0 0
0 0 0
0 0 0
0 0 0
0 0 0
0 0 0
0 0 0
0 0 0
0 0 0
0 0 0
0 0 0
0 0 0
0 0 0
0 0 0
0 0 0
0 0 0
0 0 0
0 0 0
0 0 0
0 0 0
0 0 0
0 0 0
0 0 0
0 0 0
0 0 0
0 0 0
0 0 0
0 0 0
0 0 0
0 0 0
0 0 0
0 0 0
0 0 0
0 0 0
0 0 0
0 0 0
0 0 0
0 0 0
0 0 0
0 0 0
0 0 0
0 0 0
0 0 0
0 0 0
0 0 0
0 0 0
0 0 0
0 0 0
0 0 0
0 0 0
0 0 0
0 0 0
0 0 0
0 0 0
0 0 0
0 0 0
0 0 0
0 0 0
0 0 0
0 0 0
0 0 0
0 0 0
0 0 0
0 0 0
0 0 0
0 0 0
0 0 0
0 0 0
0 0 0
0 0 0
0 0 0
0 0 0
0 0 0
0 0 0
0 0 0
0 0 0
0 0 0
0 0 0
0 0 0
0 0 0
0 0 0
0 0 0
0 0 0
0 0 0
0 0 0
0 0 0
0 0 0
0 0 0
0 0 0
0 0 0
0 0 0
0 0 0
0 0 0
0 0 0
0 0 0
0 0 0
0 0 0
0 0 0
0 0 0
0 0 0
0 0 0
0 0 0
0 0 0
0 0 0
0 0 0
0 0 0
0 0 0
0 0 0
0 0 0
0 0 0
0 0 0
0 0 0
0 0 0
0 0 0
0 0 0
0 0 0
0 0 0
0 0 0
0 0 0
0 0 0
0 0 0
0 0 0
0 0 0
0 0 0
0 0 0
0 0 0
0 0 0
0 0 0
0 0 0
0 0 0
0 0 0
0 0 0
0 0 0
0 0 0
0 0 0
0 0 0
0 0 0
0 0 0
0 0 0
0 0 0
0 0 0
0 0 0
0 0 0
0 0 0
0 0 0
0 0 0
0 0 0
0 0 0
0 0 0
0 0 0
0 0 0
0 0 0
0 0 0
0 0 0
0 0 0
0 0 0
0 0 0
0 0 0
0 0 0
0 0 0
0 0 0
0 0 0
0 0 0
0 0 0
0 0 0
0 0 0
0 0 0
0 0 0
0 0 0
0 0 0
0 0 0
0 0 0
0 0 0
0 0 0
0 0 0
0 0 0
0 0 0
0 0 0
0 0 0
0 0 0
0 0 0
0 0 0
0 0 0
0 0 0
0 0 0
0 0 0
0 0 0
0 0 0
0 0 0
0 0 0
0 0 0
0 0 0
0 0 0
0 0 0
0 0 0
0 0 0
0 0 0
0 0 0
0 0 0
0 0 0
0 0 0
0 0 0
0 0 0
0 0 0
0 0 0
0 0 0
0 0 0
0 0 0
0 0 0
0 0 0
0 0 0
0 0 0
0 0 0
0 0 0
0 0 0
0 0 0
0 0 0
0 0 0
0 0 0
0 0 0
0 0 0
0 0 0
0 0 0
0 0 0
0 0 0
0 0 0
0 0 0
0 0 0
0 0 0
0 0 0
0 0 0
0 0 0
0 0 0
-0.000162855 4.99322e-06 0.000179321
-0.000897772 -0.000135531 2.31778e-05
-0.00146114 -1.09301e-05 0.00017173
-0.00239707 -0.000101125 6.61303e-05
-0.00307477 -2.77586e-05 0.000140246
-0.00391184 -7.66971e-05 7.14512e-05
-0.00451627 -2.88822e-05 0.000106198
-0.00514097 -5.36996e-05 5.67978e-05
-0.00556899 -1.90402e-05 6.99518e-05
-0.00592317 -3.18407e-05 2.87e-05
-0.006111 -2.14595e-06 3.22387e-05
-0.00615697 -1.18328e-05 -8.34935e-06
-0.00607119 1.9307e-05 -4.45717e-06
-0.00578944 4.56571e-06 -5.08613e-05
-0.00543026 4.38235e-05 -3.58801e-05
-0.00482629 1.43319e-05 -9.57815e-05
-0.00423758 7.07404e-05 -5.52859e-05
-0.00335747 1.28617e-05 -0.000140424
-0.00264654 0.00010027 -5.29979e-05
-0.00162201 -5.12798e-06 -0.000181583
-0.0010078 0.000141579 -7.47158e-06
-0.000189029 -2.16217e-05 -0.000192841
0 0 0
0 0 0
-0.000170365 -3.31981e-05 0.000167325
-0.0013126 -0.000143556 1.14915e-05
-0.00221811 -3.95967e-05 0.000169319
-0.00361184 -6.31885e-05 6.90957e-05
-0.0046864 -9.08467e-06 0.00014102
-0.00592358 -2.50162e-05 7.63045e-05
-0.00686264 -6.66175e-07 0.000107131
-0.00778232 -1.47823e-05 5.96138e-05
-0.0084356 -5.04369e-06 6.86179e-05
-0.00895416 -1.9104e-05 2.76732e-05
-0.00923275 -1.60426e-05 2.68362e-05
-0.00929633 -3.15039e-05 -1.40712e-05
-0.00915404 -2.94912e-05 -1.49897e-05
-0.00873617 -4.7408e-05 -6.13157e-05
-0.00817307 -3.99067e-05 -5.16791e-05
-0.00728383 -6.03863e-05 -0.000109779
-0.00636077 -3.65546e-05 -7.46943e-05
-0.00506689 -5.88942e-05 -0.000155055
-0.00394007 7.92025e-07 -7.07078e-05
-0.00242635 -2.66713e-05 -0.000192102
-0.00144795 9.42411e-05 -7.37344e-06
-0.000186418 -1.37975e-05 -0.000190895
0 0 0
0 0 0
-0.000180861 -3.39938e-05 0.000197663
-0.00151793 -0.000149258 2.04082e-05
-0.00259818 -5.24356e-05 0.00019951
-0.00422433 -8.95466e-05 8.14673e-05
-0.00547927 -2.70501e-05 0.000162995
-0.00691147 -5.01816e-05 8.65801e-05
-0.0079969 -1.6739e-05 0.000122264
-0.00905545 -3.38077e-05 6.70296e-05
-0.00980518 -1.60961e-05 7.86227e-05
-0.0103979 -3.07911e-05 3.20529e-05
-0.0107135 -2.02949e-05 3.30154e-05
-0.0107813 -3.57196e-05 -1.29118e-05
-0.0106122 -2.59409e-05 -1.16865e-05
-0.0101266 -4.47293e-05 -6.39257e-05
-0.0094743 -2.82668e-05 -5.07266e-05
-0.00844777 -5.24363e-05 -0.00011743
-0.00738057 -1.80355e-05 -7.59517e-05
-0.00588709 -4.93003e-05 -0.000169964
-0.00457708 2.01964e-05 -7.39596e-05
-0.00282283 -2.36095e-05 -0.000216358
-0.00166423 9.07786e-05 -7.85258e-06
-0.00020528 -1.99662e-05 -0.000216095
0 0 0
0 0 0
-0.00018957 -5.57848e-05 0.000191977
-0.00159776 -0.000141424 8.98353e-06
-0.00274717 -7.6229e-05 0.000195476
-0.00447834 -9.3893e-05 7.54523e-05
-0.00581683 -4.51635e-05 0.000159875
-0.00733907 -5.42025e-05 8.31798e-05
-0.00849394 -2.81706e-05 0.000119889
-0.00961613 -3.71582e-05 6.45772e-05
-0.0104114 -2.52199e-05 7.6262e-05
-0.0110379 -3.57372e-05 2.93957e-05
-0.0113706 -3.09346e-05 2.99737e-05
-0.0114402 -4.35225e-05 -1.64402e-05
-0.0112578 -3.99874e-05 -1.57313e-05
-0.0107411 -5.45322e-05 -6.84964e-05
-0.0100453 -4.53655e-05 -5.55145e-05
-0.00895511 -6.08298e-05 -0.000122601
-0.00781772 -3.61551e-05 -8.02942e-05
-0.00623081 -5.14597e-05 -0.00017474
-0.00483454 1.12815e-06 -7.54671e-05
-0.00297032 -1.95519e-05 -0.000219788
-0.00174193 5.98776e-05 -2.46706e-06
-0.000209344 -1.22329e-05 -0.000216734
0 0 0
0 0 0
-0.00019247 -4.98346e-05 0.000205432
-0.00162952 -0.000122594 1.12521e-05
-0.00280195 -7.54466e-05 0.000208005
-0.00458094 -9.58743e-05 7.95928e-05
-0.00594849 -5.43284e-05 0.000169444
-0.00751152 -6.41342e-05 8.71455e-05
-0.00869034 -3.85014e-05 0.000126739
-0.0098404 -4.59123e-05 6.76776e-05
-0.0106513 -3.13987e-05 8.09671e-05
-0.011292 -3.88917e-05 3.13496e-05
-0.0116307 -3.01945e-05 3.3065e-05
-0.0117006 -3.90394e-05 -1.58269e-05
-0.0115139 -3.12065e-05 -1.384e-05
-0.0109833 -4.20396e-05 -6.95496e-05
-0.0102732 -2.93196e-05 -5.45492e-05
-0.00915449 -4.22911e-05 -0.000125889
-0.00799371 -1.72214e-05 -8.00191e-05
-0.0063645 -3.29647e-05 -0.000181031
-0.00493914 1.19028e-05 -7.54075e-05
-0.00302625 -1.22983e-05 -0.000229507
-0.00177475 4.66053e-05 -9.5495e-07
-0.000216642 -1.28432e-05 -0.000227674
0 0 0
0 0 0
-0.000197725 -5.61685e-05 0.000202518
-0.00163642 -0.000110412 4.50343e-06
-0.00281227 -8.13057e-05 0.000205284
-0.00460791 -9.41927e-05 7.44764e-05
-0.00598492 -6.31404e-05 0.000167015
-0.00756525 -6.72719e-05 8.35307e-05
-0.00875373 -4.63444e-05 0.000124779
-0.00991651 -4.92876e-05 6.50928e-05
-0.0107344 -3.68115e-05 7.93673e-05
-0.011382 -4.06641e-05 2.9294e-05
-0.0117237 -3.30176e-05 3.1656e-05
-0.0117941 -3.83502e-05 -1.77145e-05
-0.0116058 -3.15518e-05 -1.51032e-05
-0.011069 -3.81999e-05 -7.14316e-05
-0.0103526 -2.75583e-05 -5.54593e-05
-0.00922061 -3.50366e-05 -0.0001277
-0.00804993 -1.50891e-05 -8.00356e-05
-0.00640169 -2.38386e-05 -0.00018256
-0.00496619 9.29468e-06 -7.3761e-05
-0.0030348 -6.01151e-06 -0.000230647
-0.00178024 3.28392e-05 2.91115e-06
-0.000219828 -6.94319e-06 -0.000228307
0 0 0
0 0 0
-0.000198137 -4.55033e-05 0.000208553
-0.00163739 -8.81946e-05 5.54252e-06
-0.00281121 -6.88422e-05 0.000210888
-0.00461425 -8.05756e-05 7.62048e-05
-0.00599218 -5.70045e-05 0.000171527
-0.00758066 -6.09015e-05 8.52943e-05
-0.00877105 -4.34581e-05 0.000128135
-0.00993983 -4.54457e-05 6.65238e-05
-0.0107595 -3.38611e-05 8.17246e-05
-0.0114102 -3.59949e-05 3.01955e-05
-0.011753 -2.7909e-05 3.32236e-05
-0.0118236 -3.10049e-05 -1.74792e-05
-0.0116354 -2.34995e-05 -1.41346e-05
-0.0110955 -2.7785e-05 -7.20312e-05
-0.0103782 -1.74419e-05 -5.493e-05
-0.0092399 -2.30206e-05 -0.000129368
-0.00806762 -6.21516e-06 -7.97726e-05
-0.00641045 -1.40275e-05 -0.000185531
-0.00497398 1.10018e-05 -7.34949e-05
-0.00303484 -3.10825e-06 -0.000234925
-0.00178208 2.37008e-05 3.64065e-06
-0.000222517 -6.57699e-06 -0.000233175
0 0 0
0 0 0
-0.000200921 -4.2227e-05 0.000207034
-0.00163573 -7.30259e-05 2.16086e-06
-0.00280658 -6.17901e-05 0.00020943
-0.00461068 -6.92845e-05 7.32938e-05
-0.00598752 -5.26302e-05 0.000170213
-0.00757933 -5.41428e-05 8.30736e-05
-0.00877013 -4.08044e-05 0.000127058
-0.00994205 -4.09395e-05 6.4904e-05
-0.0107626 -3.15561e-05 8.08954e-05
-0.0114153 -3.19654e-05 2.89845e-05
-0.0117588 -2.51461e-05 3.26186e-05
-0.0118297 -2.63729e-05 -1.84554e-05
-0.0116417 -2.00321e-05 -1.44993e-05
-0.0111002 -2.20875e-05 -7.28785e-05
-0.0103825 -1.37474e-05 -5.49432e-05
-0.00924083 -1.66022e-05 -0.00013011
-0.00806816 -3.89675e-06 -7.92223e-05
-0.00640679 -8.32571e-06 -0.000186143
-0.00497117 9.27712e-06 -7.21707e-05
-0.00302997 1.58059e-07 -0.000235396
-0.00178024 1.73406e-05 5.68459e-06
-0.000224413 -2.76779e-06 -0.000233508
0 0 0
0 0 0
-0.000200832 -2.86405e-05 0.000209636
-0.00163435 -5.01454e-05 2.68543e-06
-0.00280283 -4.31461e-05 0.000211895
-0.00460771 -4.87818e-05 7.40732e-05
-0.00598314 -3.76e-05 0.000172286
-0.00757687 -3.89372e-05 8.38742e-05
-0.00876723 -2.95685e-05 0.000128647
-0.00994095 -2.96858e-05 6.55545e-05
-0.0107616 -2.27702e-05 8.20231e-05
-0.0114154 -2.28845e-05 2.93746e-05
-0.0117592 -1.76124e-05 3.33562e-05
-0.0118302 -1.82182e-05 -1.8405e-05
-0.0116426 -1.32512e-05 -1.40699e-05
-0.0111002 -1.44936e-05 -7.32472e-05
-0.0103829 -8.24773e-06 -5.4738e-05
-0.00923928 -1.02703e-05 -0.000130983
-0.00806723 -1.33161e-06 -7.9142e-05
-0.00640357 -4.80366e-06 -0.000187574
-0.00496934 6.92062e-06 -7.20843e-05
-0.00302711 -8.17272e-10 -0.000237318
-0.00177953 1.09729e-05 5.93153e-06
-0.000225405 -2.77822e-06 -0.000235643
0 0 0
0 0 0
-0.000202007 -2.01344e-05 0.000208973
-0.00163328 -3.25592e-05 1.28719e-06
-0.00280024 -2.92553e-05 0.000211261
-0.00460462 -3.21223e-05 7.28014e-05
-0.00597897 -2.57413e-05 0.000171717
-0.00757337 -2.6046e-05 8.28644e-05
-0.0087634 -2.03913e-05 0.000128181
-0.00993806 -1.99832e-05 6.48073e-05
-0.0107588 -1.56421e-05 8.16793e-05
-0.0114133 -1.52718e-05 2.883e-05
-0.0117573 -1.18774e-05 3.31384e-05
-0.0118285 -1.18244e-05 -1.88149e-05
-0.011641 -8.62522e-06 -1.41466e-05
-0.0110982 -8.93406e-06 -7.35727e-05
-0.010381 -5.02414e-06 -5.46299e-05
-0.00923639 -5.75023e-06 -0.000131249
-0.00806474 -3.83481e-07 -7.87821e-05
-0.00640004 -1.93413e-06 -0.000187788
-0.00496681 4.77457e-06 -7.14297e-05
-0.00302463 1.20528e-06 -0.000237483
-0.00177854 7.05984e-06 6.80794e-06
-0.000226257 -4.55924e-07 -0.000235764
0 0 0
0 0 0
-0.000201941 -5.08494e-06 0.000209699
-0.00163276 -9.2566e-06 1.44444e-06
-0.00279899 -8.00713e-06 0.000211957
-0.00460337 -9.15885e-06 7.30245e-05
-0.00597718 -7.08468e-06 0.000172315
-0.00757198 -7.40609e-06 8.30927e-05
-0.00876179 -5.62288e-06 0.000128647
-0.0099369 -5.68587e-06 6.49921e-05
-0.0107576 -4.33525e-06 8.20122e-05
-0.0114124 -4.37603e-06 2.89368e-05
-0.0117565 -3.32229e-06 3.33546e-05
-0.0118278 -3.44832e-06 -1.88116e-05
-0.0116404 -2.44984e-06 -1.40246e-05
-0.0110974 -2.70656e-06 -7.36959e-05
-0.0103804 -1.48004e-06 -5.4576e-05
-0.00923524 -1.91565e-06 -0.00013152
-0.00806387 -2.23549e-07 -7.87651e-05
-0.00639868 -9.78444e-07 -0.000188214
-0.00496597 1.16241e-06 -7.14117e-05
-0.0030237 -2.62475e-07 -0.000238036
-0.00177827 1.69913e-06 6.8671e-06
-0.000226508 -8.95243e-07 -0.00023637
0 0 0
0 0 0
-0.000201941 5.08494e-06 0.000209699
-0.00163276 9.2566e-06 1.44444e-06
-0.00279899 8.00713e-06 0.000211957
-0.00460337 9.15885e-06 7.30245e-05
-0.00597718 7.08468e-06 0.000172315
-0.00757198 7.40609e-06 8.30927e-05
-0.00876179 5.62288e-06 0.000128647
-0.0099369 5.68587e-06 6.49921e-05
-0.0107576 4.33525e-06 8.20122e-05
-0.0114124 4.37603e-06 2.89368e-05
-0.0117565 3.32229e-06 3.33546e-05
-0.0118278 3.44832e-06 -1.88116e-05
-0.0116404 2.44984e-06 -1.40246e-05
-0.0110974 2.70656e-06 -7.36959e-05
-0.0103804 1.48004e-06 -5.4576e-05
-0.00923524 1.91565e-06 -0.00013152
-0.00806387 2.23549e-07 -7.87651e-05
-0.00639868 9.78444e-07 -0.000188214
-0.00496597 -1.16241e-06 -7.14117e-05
-0.0030237 2.62475e-07 -0.000238036
-0.00177827 -1.69913e-06 6.8671e-06
-0.000226508 8.95243e-07 -0.00023637
0 0 0
0 0 0
-0.000202007 2.01344e-05 0.000208973
-0.00163328 3.25592e-05 1.28719e-06
-0.00280024 2.92553e-05 0.000211261
-0.00460462 3.21223e-05 7.28014e-05
-0.00597897 2.57413e-05 0.000171717
-0.00757337 2.6046e-05 8.28644e-05
-0.0087634 2.03913e-05 0.000128181
-0.00993806 1.99832e-05 6.48073e-05
-0.0107588 1.56421e-05 8.16793e-05
-0.0114133 1.52718e-05 2.883e-05
-0.0117573 1.18774e-05 3.31384e-05
-0.0118285 1.18244e-05 -1.88149e-05
-0.011641 8.62522e-06 -1.41466e-05
-0.0110982 8.93406e-06 -7.35727e-05
-0.010381 5.02414e-06 -5.46299e-05
-0.00923639 5.75023e-06 -0.000131249
-0.00806474 3.83481e-07 -7.87821e-05
-0.00640004 1.93413e-06 -0.000187788
-0.00496681 -4.77457e-06 -7.14297e-05
-0.00302463 -1.20528e-06 -0.000237483
-0.00177854 -7.05984e-06 6.80794e-06
-0.000226257 4.55924e-07 -0.000235764
0 0 0
0 0 0
-0.000200832 2.86405e-05 0.000209636
-0.00163435 5.01454e-05 2.68543e-06
-0.00280283 4.31461e-05 0.000211895
-0.00460771 4.87818e-05 7.40732e-05
-0.00598314 3.76e-05 0.000172286
-0.00757687 3.89372e-05 8.38742e-05
-0.00876723 2.95685e-05 0.000128647
-0.00994095 2.96858e-05 6.55545e-05
-0.0107616 2.27702e-05 8.20231e-05
-0.0114154 2.28845e-05 2.93746e-05
-0.0117592 1.76124e-05 3.33562e-05
-0.0118302 1.82182e-05 -1.8405e-05
-0.0116426 1.32512e-05 -1.40699e-05
-0.0111002 1.44936e-05 -7.32472e-05
-0.0103829 8.24773e-06 -5.4738e-05
-0.00923928 1.02703e-05 -0.000130983
-0.00806723 1.33161e-06 -7.9142e-05
-0.00640357 4.80366e-06 -0.000187574
-0.00496934 -6.92062e-06 -7.20843e-05
-0.00302711 8.17272e-10 -0.000237318
-0.00177953 -1.09729e-05 5.93153e-06
-0.000225405 2.77822e-06 -0.000235643
0 0 0
0 0 0
-0.000200921 4.2227e-05 0.000207034
-0.00163573 7.30259e-05 2.16086e-06
-0.00280658 6.17901e-05 0.00020943
-0.00461068 6.92845e-05 7.32938e-05
-0.00598752 5.26302e-05 0.000170213
-0.00757933 5.41428e-05 8.30736e-05
-0.00877013 4.08044e-05 0.000127058
-0.00994205 4.09395e-05 6.4904e-05
-0.0107626 3.15561e-05 8.08954e-05
-0.0114153 3.19654e-05 2.89845e-05
-0.0117588 2.51461e-05 3.26186e-05
-0.0118297 2.63729e-05 -1.84554e-05
-0.0116417 2.00321e-05 -1.44993e-05
-0.0111002 2.20875e-05 -7.28785e-05
-0.0103825 1.37474e-05 -5.49432e-05
-0.00924083 1.66022e-05 -0.00013011
-0.00806816 3.89675e-06 -7.92223e-05
-0.00640679 8.32571e-06 -0.000186143
-0.00497117 -9.27712e-06 -7.21707e-05
-0.00302997 -1.58059e-07 -0.000235396
-0.00178024 -1.73406e-05 5.68459e-06
-0.000224413 2.76779e-06 -0.000233508
0 0 0
0 0 0
-0.000198137 4.55033e-05 0.000208553
-0.00163739 8.81946e-05 5.54252e-06
-0.00281121 6.88422e-05 0.000210888
-0.00461425 8.05756e-05 7.62048e-05
-0.00599218 5.70045e-05 0.000171527
-0.00758066 6.09015e-05 8.52943e-05
-0.00877105 4.34581e-05 0.000128135
-0.00993983 4.54457e-05 6.65238e-05
-0.0107595 3.38611e-05 8.17246e-05
-0.0114102 3.59949e-05 3.01955e-05
-0.011753 2.7909e-05 3.32236e-05
-0.0118236 3.10049e-05 -1.74792e-05
-0.0116354 2.34995e-05 -1.41346e-05
-0.0110955 2.7785e-05 -7.20312e-05
-0.0103782 1.74419e-05 -5.493e-05
-0.0092399 2.30206e-05 -0.000129368
-0.00806762 6.21516e-06 -7.97726e-05
-0.00641045 1.40275e-05 -0.000185531
-0.00497398 -1.10018e-05 -7.34949e-05
-0.00303484 3.10825e-06 -0.000234925
-0.00178208 -2.37008e-05 3.64065e-06
-0.000222517 6.57699e-06 -0.000233175
0 0 0
0 0 0
-0.000197725 5.61685e-05 0.000202518
-0.00163642 0.000110412 4.50343e-06
-0.00281227 8.13057e-05 0.000205284
-0.00460791 9.41927e-05 7.44764e-05
-0.00598492 6.31404e-05 0.000167015
-0.00756525 6.72719e-05 8.35307e-05
-0.00875373 4.63444e-05 0.000124779
-0.00991651 4.92876e-05 6.50928e-05
-0.0107344 3.68115e-05 7.93673e-05
-0.011382 4.06641e-05 2.9294e-05
-0.0117237 3.30176e-05 3.1656e-05
-0.0117941 3.83502e-05 -1.77145e-05
-0.0116058 3.15518e-05 -1.51032e-05
-0.011069 3.81999e-05 -7.14316e-05
-0.0103526 2.75583e-05 -5.54593e-05
-0.00922061 3.50366e-05 -0.0001277
-0.00804993 1.50891e-05 -8.00356e-05
-0.00640169 2.38386e-05 -0.00018256
-0.00496619 -9.29468e-06 -7.3761e-05
-0.0030348 6.01151e-06 -0.000230647
-0.00178024 -3.28392e-05 2.91115e-06
-0.000219828 6.94319e-06 -0.000228307
0 0 0
0 0 0
-0.00019247 4.98346e-05 0.000205432
-0.00162952 0.000122594 1.12521e-05
-0.00280195 7.54466e-05 0.000208005
-0.00458094 9.58743e-05 7.95928e-05
-0.00594849 5.43284e-05 0.000169444
-0.00751152 6.41342e-05 8.71455e-05
-0.00869034 3.85014e-05 0.000126739
-0.0098404 4.59123e-05 6.76776e-05
-0.0106513 3.13987e-05 8.09671e-05
-0.011292 3.88917e-05 3.13496e-05
-0.0116307 3.01945e-05 3.3065e-05
-0.0117006 3.90394e-05 -1.58269e-05
-0.0115139 3.12065e-05 -1.384e-05
-0.0109833 4.20396e-05 -6.95496e-05
-0.0102732 2.93196e-05 -5.45492e-05
-0.00915449 4.22911e-05 -0.000125889
-0.00799371 1.72214e-05 -8.00191e-05
-0.0063645 3.29647e-05 -0.000181031
-0.00493914 -1.19028e-05 -7.54075e-05
-0.00302625 1.22983e-05 -0.000229507
-0.00177475 -4.66053e-05 -9.5495e-07
-0.000216642 1.28432e-05 -0.000227674
0 0 0
0 0 0
-0.00018957 5.57848e-05 0.000191977
-0.00159776 0.000141424 8.98353e-06
-0.00274717 7.6229e-05 0.000195476
-0.00447834 9.3893e-05 7.54523e-05
-0.00581683 4.51635e-05 0.000159875
-0.00733907 5.42025e-05 8.31798e-05
-0.00849394 2.81706e-05 0.000119889
-0.00961613 3.71582e-05 6.45772e-05
-0.0104114 2.52199e-05 7.6262e-05
-0.0110379 3.57372e-05 2.93957e-05
-0.0113706 3.09346e-05 2.99737e-05
-0.0114402 4.35225e-05 -1.64402e-05
-0.0112578 3.99874e-05 -1.57313e-05
-0.0107411 5.45322e-05 -6.84964e-05
-0.0100453 4.53655e-05 -5.55145e-05
-0.00895511 6.08298e-05 -0.000122601
-0.00781772 3.61551e-05 -8.02942e-05
-0.00623081 5.14597e-05 -0.00017474
-0.00483454 -1.12815e-06 -7.54671e-05
-0.00297032 1.95519e-05 -0.000219788
-0.00174193 -5.98776e-05 -2.46706e-06
-0.000209344 1.22329e-05 -0.000216734
0 0 0
0 0 0
-0.000180861 3.39938e-05 0.000197663
-0.00151793 0.000149258 2.04082e-05
-0.00259818 5.24356e-05 0.00019951
-0.00422433 8.95466e-05 8.14673e-05
-0.00547927 2.70501e-05 0.000162995
-0.00691147 5.01816e-05 8.65801e-05
-0.0079969 1.6739e-05 0.000122264
-0.00905545 3.38077e-05 6.70296e-05
-0.00980518 1.60961e-05 7.86227e-05
-0.0103979 3.07911e-05 3.20529e-05
-0.0107135 2.02949e-05 3.30154e-05
-0.0107813 3.57196e-05 -1.29118e-05
-0.0106122 2.59409e-05 -1.16865e-05
-0.0101266 4.47293e-05 -6.39257e-05
-0.0094743 2.82668e-05 -5.07266e-05
-0.00844777 5.24363e-05 -0.00011743
-0.00738057 1.80355e-05 -7.59517e-05
-0.00588709 4.93003e-05 -0.000169964
-0.00457708 -2.01964e-05 -7.39596e-05
-0.00282283 2.36095e-05 -0.000216358
-0.00166423 -9.07786e-05 -7.85258e-06
-0.00020528 1.99662e-05 -0.000216095
0 0 0
0 0 0
-0.000170365 3.31981e-05 0.000167325
-0.0013126 0.000143556 1.14915e-05
-0.00221811 3.95967e-05 0.000169319
-0.00361184 6.31885e-05 6.90957e-05
-0.0046864 9.08467e-06 0.00014102
-0.00592358 2.50162e-05 7.63045e-05
-0.00686264 6.66175e-07 0.000107131
-0.00778232 1.47823e-05 5.96138e-05
-0.0084356 5.04369e-06 6.86179e-05
-0.00895416 1.9104e-05 2.76732e-05
-0.00923275 1.60426e-05 2.68362e-05
-0.00929633 3.15039e-05 -1.40712e-05
-0.00915404 2.94912e-05 -1.49897e-05
-0.00873617 4.7408e-05 -6.13157e-05
-0.00817307 3.99067e-05 -5.16791e-05
-0.00728383 6.03863e-05 -0.000109779
-0.00636077 3.65546e-05 -7.46943e-05
-0.00506689 5.88942e-05 -0.000155055
-0.00394007 -7.92025e-07 -7.07078e-05
-0.00242635 2.66713e-05 -0.000192102
-0.00144795 -9.42411e-05 -7.37344e-06
-0.000186418 1.37975e-05 -0.000190895
0 0 0
0 0 0
-0.000162855 -4.99322e-06 0.000179321
-0.000897772 0.000135531 2.31778e-05
-0.00146114 1.09301e-05 0.00017173
-0.00239707 0.000101125 6.61303e-05
-0.00307477 2.77586e-05 0.000140246
-0.00391184 7.66971e-05 7.14512e-05
-0.00451627 2.88822e-05 0.000106198
-0.00514097 5.36996e-05 5.67978e-05
-0.00556899 1.90402e-05 6.99518e-05
-0.00592317 3.18407e-05 2.87e-05
-0.006111 2.14595e-06 3.22387e-05
-0.00615697 1.18328e-05 -8.34935e-06
-0.00607119 -1.9307e-05 -4.45717e-06
-0.00578944 -4.56571e-06 -5.08613e-05
-0.00543026 -4.38235e-05 -3.58801e-05
-0.00482629 -1.43319e-05 -9.57815e-05
-0.00423758 -7.07404e-05 -5.52859e-05
-0.00335747 -1.28617e-05 -0.000140424
-0.00264654 -0.00010027 -5.29979e-05
-0.00162201 5.12798e-06 -0.000181583
-0.0010078 -0.000141579 -7.47158e-06
-0.000189029 2.16217e-05 -0.000192841
0 0 0
0 0 0
0 0 0
0 0 0
0 0 0
0 0 0
0 0 0
0 0 0
0 0 0
0 0 0
0 0 0
0 0 0
0 0 0
0 0 0
0 0 0
0 0 0
0 0 0
0 0 0
0 0 0
0 0 0
0 0 0
0 0 0
0 0 0
0 0 0
0 0 0
0 0 0
0 0 0
0 0 0
0 0 0
0 0 0
0 0 0
0 0 0
0 0 0
0 0 0
0 0 0
0 0 0
0 0 0
0 0 0
0 0 0
0 0 0
0 0 0
0 0 0
0 0 0
0 0 0
0 0 0
0 0 0
0 0 0
0 0 0
0 0 0
0 0 0
-5.71189e-05 0.000120835 0.000968189
-0.00128758 -3.03746e-05 0.00121006
-0.00222589 0.00012139 0.0015146
-0.00370055 2.84616e-05 0.00145873
-0.00482205 0.000100789 0.00145768
-0.00611832 4.25698e-05 0.00128923
-0.00709638 7.61026e-05 0.00116039
-0.00805646 3.46735e-05 0.000941322
-0.00873738 4.79038e-05 0.000743999
-0.00927995 1.33858e-05 0.00049023
-0.00957359 1.78579e-05 0.000252997
-0.00964448 -1.59771e-05 -2.43816e-05
-0.00950275 -1.11061e-05 -0.000275706
-0.00907273 -4.96682e-05 -0.000561929
-0.00849321 -3.46145e-05 -0.000795443
-0.00756801 -8.42024e-05 -0.00107014
-0.00660967 -4.52186e-05 -0.00123979
-0.00525135 -0.000116022 -0.00147005
-0.00407345 -3.11794e-05 -0.00149031
-0.00246557 -0.000142201 -0.00159408
-0.00144552 3.39884e-05 -0.0012609
-8.16437e-05 -0.000143203 -0.00104324
0 0 0
0 0 0
-6.66796e-05 2.49723e-05 0.00136465
-0.00196952 -0.000106487 0.00181696
-0.00350693 4.30999e-05 0.00227338
-0.00575124 2.44814e-05 0.00223682
-0.00754936 9.15964e-05 0.00221337
-0.00951503 6.84433e-05 0.00197359
-0.0110555 8.56406e-05 0.00175669
-0.0125064 5.46029e-05 0.0014279
-0.0135628 4.66501e-05 0.00111091
-0.0143774 9.7501e-06 0.000725091
-0.0148209 -1.02337e-05 0.00034992
-0.0149197 -5.15008e-05 -7.18089e-05
-0.0146822 -7.40728e-05 -0.000467988
-0.0140249 -0.000118044 -0.00089962
-0.0131038 -0.000132208 -0.00127097
-0.0117036 -0.000174651 -0.00167713
-0.0101833 -0.000161967 -0.00195636
-0.00813435 -0.00019572 -0.00227824
-0.00624922 -0.000123375 -0.00233282
-0.00382261 -0.000146309 -0.00242372
-0.00216704 2.74945e-05 -0.00192714
-7.81684e-05 -9.6288e-05 -0.00148617
0 0 0
0 0 0
-6.2226e-05 1.97633e-05 0.00157749
-0.00231677 -0.000118719 0.00213655
-0.00416997 1.71321e-05 0.00268357
-0.00681913 -1.57213e-05 0.00265239
-0.0089482 6.0506e-05 0.00262011
-0.0112524 3.16892e-05 0.00233616
-0.0130596 5.9654e-05 0.00207281
-0.0147513 2.72955e-05 0.00168125
-0.0159818 2.88167e-05 0.00130108
-0.0169251 -7.25529e-06 0.000842671
-0.0174347 -1.84455e-05 0.000395524
-0.0175409 -5.82785e-05 -0.000103988
-0.0172541 -7.16485e-05 -0.000574703
-0.0164799 -0.000114899 -0.00108454
-0.0153961 -0.000118347 -0.00152571
-0.0137583 -0.000162648 -0.0020041
-0.0119739 -0.000137385 -0.00233717
-0.00957899 -0.000178459 -0.00271251
-0.00735641 -9.54514e-05 -0.00277799
-0.00451091 -0.000135647 -0.00286661
-0.00252983 2.49918e-05 -0.00226995
-8.16106e-05 -0.000101297 -0.00171625
0 0 0
0 0 0
-6.76247e-05 -3.80523e-05 0.00163676
-0.00245862 -0.000146358 0.00223768
-0.00444426 -5.46202e-05 0.00282827
-0.00727966 -6.81653e-05 0.00280495
-0.00956321 -5.44564e-06 0.00277158
-0.0120256 -1.58941e-05 0.00247254
-0.0139585 9.86931e-06 0.00219047
-0.0157616 -8.01e-06 0.00177477
-0.0170736 -5.1837e-06 0.00136841
-0.0180758 -2.96461e-05 0.000881073
-0.0186155 -3.865e-05 0.00040376
-0.0187247 -6.77657e-05 -0.000127187
-0.0184136 -7.92874e-05 -0.000629396
-0.0175849 -0.000110368 -0.00117072
-0.0164228 -0.000113417 -0.0016415
-0.0146738 -0.000141739 -0.00214802
-0.0127623 -0.000120281 -0.00250333
-0.0102041 -0.000140171 -0.00289678
-0.00782248 -7.35658e-05 -0.00296358
-0.00478335 -9.00375e-05 -0.00304322
-0.00266824 2.28428e-05 -0.00239663
-8.09521e-05 -6.16633e-05 -0.00179437
0 0 0
0 0 0
-6.3766e-05 -4.05575e-05 0.00166757
-0.00251264 -0.000133627 0.00227683
-0.00454543 -6.98705e-05 0.00289084
-0.00746576 -8.87381e-05 0.00286661
-0.00980865 -3.58705e-05 0.00283638
-0.0123428 -4.60555e-05 0.0025283
-0.0143241 -1.8866e-05 0.00224043
-0.0161764 -3.18321e-05 0.0018129
-0.0175195 -2.25859e-05 0.00139687
-0.018547 -3.95231e-05 0.000896334
-0.0190984 -3.98687e-05 0.000407485
-0.0192083 -6.02126e-05 -0.000137527
-0.0188882 -6.23779e-05 -0.000651705
-0.0180351 -8.46768e-05 -0.00120743
-0.0168436 -7.95634e-05 -0.00168891
-0.0150447 -0.00010122 -0.0022093
-0.0130851 -7.68086e-05 -0.00257122
-0.0104527 -9.56151e-05 -0.00297568
-0.00801099 -3.94455e-05 -0.00303838
-0.00488501 -6.23578e-05 -0.00311947
-0.00272258 1.89272e-05 -0.00244546
-8.08163e-05 -5.11511e-05 -0.0018327
0 0 0
0 0 0
-6.67599e-05 -6.08595e-05 0.00166236
-0.00252549 -0.00013261 0.00226964
-0.00456844 -9.46592e-05 0.00289273
-0.00751929 -0.000106836 0.00286887
-0.00988281 -6.68234e-05 0.00284212
-0.012447 -6.98096e-05 0.00253264
-0.0144477 -4.56801e-05 0.00224508
-0.0163217 -5.06655e-05 0.00181543
-0.0176782 -3.97427e-05 0.0013982
-0.0187173 -4.84151e-05 0.000895035
-0.0192742 -4.51374e-05 0.000404147
-0.0193849 -5.68445e-05 -0.000143949
-0.0190615 -5.51467e-05 -0.000660478
-0.0181977 -6.81588e-05 -0.00121957
-0.0169939 -6.08498e-05 -0.00170298
-0.0151726 -7.27574e-05 -0.00222665
-0.0131931 -5.13008e-05 -0.00258881
-0.0105283 -6.09853e-05 -0.00299566
-0.00806463 -1.89591e-05 -0.00305435
-0.00490548 -3.37269e-05 -0.00313523
-0.00273319 1.88065e-05 -0.00244961
-8.10724e-05 -2.9275e-05 -0.00183696
0 0 0
0 0 0
-6.45748e-05 -5.21865e-05 0.00166184
-0.00252674 -0.000109222 0.00226372
-0.0045685 -8.52284e-05 0.00289196
-0.00753231 -9.71994e-05 0.00286627
-0.0099006 -6.70557e-05 0.00284267
-0.0124785 -6.9792e-05 0.00253173
-0.0144849 -4.91215e-05 0.00224564
-0.016369 -5.17885e-05 0.00181475
-0.01773 -4.02233e-05 0.00139808
-0.0187745 -4.4933e-05 0.000893733
-0.0193336 -3.89047e-05 0.000402925
-0.0194448 -4.57041e-05 -0.000146496
-0.0191208 -4.07896e-05 -0.000663054
-0.0182522 -4.88032e-05 -0.00122376
-0.017045 -3.97775e-05 -0.00170684
-0.0152132 -4.78528e-05 -0.0022325
-0.0132281 -2.90861e-05 -0.00259326
-0.0105483 -3.74331e-05 -0.00300243
-0.00807962 -5.96456e-06 -0.00305747
-0.00490656 -2.06175e-05 -0.00314083
-0.00273515 1.46617e-05 -0.00244857
-8.06943e-05 -2.22677e-05 -0.00184075
0 0 0
0 0 0
-6.63596e-05 -5.18812e-05 0.00165351
-0.0025241 -9.39521e-05 0.00225094
-0.00456195 -8.07783e-05 0.00288092
-0.00752831 -8.85837e-05 0.00285466
-0.00989638 -6.72035e-05 0.00283341
-0.0124797 -6.73408e-05 0.00252278
-0.0144881 -5.09379e-05 0.00223869
-0.0163772 -5.06445e-05 0.00180848
-0.0177403 -4.02428e-05 0.00139347
-0.0187878 -4.14526e-05 0.000889871
-0.0193482 -3.50057e-05 0.000400469
-0.0194599 -3.78233e-05 -0.00014832
-0.019136 -3.22457e-05 -0.000663592
-0.0182649 -3.59474e-05 -0.00122389
-0.0170564 -2.75449e-05 -0.00170559
-0.0152193 -3.13162e-05 -0.00223116
-0.0132324 -1.65021e-05 -0.00259008
-0.0105459 -2.08444e-05 -0.00299959
-0.00807691 1.326e-06 -0.00305203
-0.00489984 -8.34773e-06 -0.00313649
-0.00273225 1.37319e-05 -0.00244142
-8.12658e-05 -1.13456e-05 -0.00183752
0 0 0
0 0 0
-6.53484e-05 -3.60558e-05 0.00165092
-0.0025217 -6.55771e-05 0.00224487
-0.0045562 -5.77847e-05 0.00287613
-0.00752391 -6.38321e-05 0.00284888
-0.00989068 -4.95363e-05 0.00282926
-0.012477 -4.98844e-05 0.00251838
-0.0144856 -3.8239e-05 0.00223563
-0.0163774 -3.78321e-05 0.00180548
-0.0177412 -2.98953e-05 0.00139152
-0.0187905 -3.0239e-05 0.000888089
-0.0193516 -2.48443e-05 0.000399557
-0.0194636 -2.61945e-05 -0.000149107
-0.0191399 -2.13661e-05 -0.000663562
-0.0182675 -2.34124e-05 -0.0012239
-0.017059 -1.67883e-05 -0.00170466
-0.015219 -1.92153e-05 -0.00223055
-0.0132321 -8.66e-06 -0.00258819
-0.010542 -1.20697e-05 -0.00299843
-0.00807418 2.62352e-06 -0.00304906
-0.00489518 -4.92894e-06 -0.00313497
-0.00273062 8.91454e-06 -0.00243799
-8.10711e-05 -8.33562e-06 -0.00183738
0 0 0
0 0 0
-6.61619e-05 -2.57704e-05 0.00164682
-0.00251995 -4.30713e-05 0.00223869
-0.00455219 -3.96023e-05 0.00287032
-0.00751938 -4.26906e-05 0.00284276
-0.0098849 -3.45056e-05 0.00282418
-0.0124723 -3.40862e-05 0.00251352
-0.0144807 -2.69379e-05 0.00223182
-0.016374 -2.59854e-05 0.00180212
-0.0177382 -2.0795e-05 0.00138912
-0.0187885 -2.02781e-05 0.000886201
-0.01935 -1.65283e-05 0.000398536
-0.0194623 -1.66202e-05 -0.000149661
-0.0191389 -1.32211e-05 -0.000663301
-0.0182658 -1.37243e-05 -0.00122329
-0.0170572 -9.34986e-06 -0.00170321
-0.0152157 -1.00852e-05 -0.00222893
-0.013229 -3.62685e-06 -0.00258561
-0.0105374 -5.01143e-06 -0.00299596
-0.0080706 3.39773e-06 -0.00304549
-0.00489146 -5.25487e-07 -0.00313203
-0.00272904 6.74263e-06 -0.00243424