# vtk DataFile Version 3.0
CFD lid driven cavity 3D
ASCII
DATASET STRUCTURED_POINTS
DIMENSIONS 25 25 25
ORIGIN 0 0 0
SPACING 0.0416667 0.0416667 0.0416667
CELL_DATA 13824
VECTORS velocity double
0 0 0
0 0 0
0 0 0
0 0 0
0 0 0
0 0 0
0 0 0
0 0 0
0 0 0
0 0 0
0 0 0
0 0 0
0 0 0
0 0 0
0 0 0
0 0 0
0 0 0
0 0 0
0 0 0
0 0 0
0 0 0
0 0 0
0 0 0
0 0 0
0 0 0
0 0 0
0 0 0
0 0 0
0 0 0
0 0 0
0 0 0
0 0 0
0 0 0
0 0 0
0 0 0
0 0 0
0 0 0
0 0 0
0 0 0
0 0 0
0 0 0
0 0 0
0 0 0
0 0 0
0 0 0
0 0 0
0 0 0
0 0 0
0 0 0
0 0 0
0 0 0
0 0 0
0 0 0
0 0 0
0 0 0
0 0 0
0 0 0
0 0 0
0 0 0
0 0 0
0 0 0
0 0 0
0 0 0
0 0 0
0 0 0
0 0 0
0 0 0
0 0 0
0 0 0
0 0 0
0 0 0
0 0 0
0 0 0
0 0 0
0 0 0
0 0 0
0 0 0
0 0 0
0 0 0
0 0 0
0 0 0
0 0 0
0 0 0
0 0 0
0 0 0
0 0 0
0 0 0
0 0 0
0 0 0
0 0 0
0 0 0
0 0 0
0 0 0
0 0 0
0 0 0
0 0 0
0 0 0
0 0 0
0 0 0
0 0 0
0 0 0
0 0 0
0 0 0
0 0 0
0 0 0
0 0 0
0 0 0
0 0 0
0 0 0
0 0 0
0 0 0
0 0 0
0 0 0
0 0 0
0 0 0
0 0 0
0 0 0
0 0 0
0 0 0
0 0 0
0 0 0
0 0 0
0 0 0
0 0 0
0 0 0
0 0 0
0 0 0
0 0 0
0 0 0
0 0 0
0 0 0
0 0 0
0 0 0
0 0 0
0 0 0
0 0 0
0 0 0
0 0 0
0 0 0
0 0 0
0 0 0
0 0 0
0 0 0
0 0 0
0 0 0
0 0 0
0 0 0
0 0 0
0 0 0
0 0 0
0 0 0
0 0 0
0 0 0
0 0 0
0 0 0
0 0 0
0 0 0
0 0 0
0 0 0
0 0 0
0 0 0
0 0 0
0 0 0
0 0 0
0 0 0
0 0 0
0 0 0
0 0 0
0 0 0
0 0 0
0 0 0
0 0 0
0 0 0
0 0 0
0 0 0
0 0 0
0 0 0
0 0 0
0 0 0
0 0 0
0 0 0
0 0 0
0 0 0
0 0 0
0 0 0
0 0 0
0 0 0
0 0 0
0 0 0
0 0 0
0 0 0
0 0 0
0 0 0
0 0 0
0 0 0
0 0 0
0 0 0
0 0 0
0 0 0
0 0 0
0 0 0
0 0 0
0 0 0
0 0 0
0 0 0
0 0 0
0 0 0
0 0 0
0 0 0
0 0 0
0 0 0
0 0 0
0 0 0
0 0 0
0 0 0
0 0 0
0 0 0
0 0 0
0 0 0
0 0 0
0 0 0
0 0 0
0 0 0
0 0 0
0 0 0
0 0 0
0 0 0
0 0 0
0 0 0
0 0 0
0 0 0
0 0 0
0 0 0
0 0 0
0 0 0
0 0 0
0 0 0
0 0 0
0 0 0
0 0 0
0 0 0
0 0 0
0 0 0
0 0 0
0 0 0
0 0 0
0 0 0
0 0 0
0 0 0
0 0 0
0 0 0
0 0 0
0 0 0
0 0 0
0 0 0
0 0 0
0 0 0
0 0 0
0 0 0
0 0 0
0 0 0
0 0 0
0 0 0
0 0 0
0 0 0
0 0 0
0 0 0
0 0 0
0 0 0
0 0 0
0 0 0
0 0 0
0 0 0
0 0 0
0 0 0
0 0 0
0 0 0
0 0 0
0 0 0
0 0 0
0 0 0
0 0 0
0 0 0
0 0 0
0 0 0
0 0 0
0 0 0
0 0 0
0 0 0
0 0 0
0 0 0
0 0 0
0 0 0
0 0 0
0 0 0
0 0 0
0 0 0
0 0 0
0 0 0
0 0 0
0 0 0
0 0 0
0 0 0
0 0 0
0 0 0
0 0 0
0 0 0
0 0 0
0 0 0
0 0 0
0 0 0
0 0 0
0 0 0
0 0 0
0 0 0
0 0 0
0 0 0
0 0 0
0 0 0
0 0 0
0 0 0
0 0 0
0 0 0
0 0 0
0 0 0
0 0 0
0 0 0
0 0 0
0 0 0
0 0 0
0 0 0
0 0 0
0 0 0
0 0 0
0 0 0
0 0 0
0 0 0
0 0 0
0 0 0
0 0 0
0 0 0
0 0 0
0 0 0
0 0 0
0 0 0
0 0 0
0 0 0
0 0 0
0 0 0
0 0 0
0 0 0
0 0 0
0 0 0
0 0 0
0 0 0
0 0 0
0 0 0
0 0 0
0 0 0
0 0 0
0 0 0
0 0 0
0 0 0
0 0 0
0 0 0
0 0 0
0 0 0
0 0 0
0 0 0
0 0 0
0 0 0
0 0 0
0 0 0
0 0 0
0 0 0
0 0 0
0 0 0
0 0 0
0 0 0
0 0 0
0 0 0
0 0 0
0 0 0
0 0 0
0 0 0
0 0 0
0 0 0
0 0 0
0 0 0
0 0 0
0 0 0
0 0 0
0 0 0
0 0 0
0 0 0
0 0 0
0 0 0
0 0 0
0 0 0
0 0 0
0 0 0
0 0 0
0 0 0
0 0 0
0 0 0
0 0 0
0 0 0
0 0 0
0 0 0
0 0 0
0 0 0
0 0 0
0 0 0
0 0 0
0 0 0
0 0 0
0 0 0
0 0 0
0 0 0
0 0 0
0 0 0
0 0 0
0 0 0
0 0 0
0 0 0
0 0 0
0 0 0
0 0 0
0 0 0
0 0 0
0 0 0
0 0 0
0 0 0
0 0 0
0 0 0
0 0 0
0 0 0
0 0 0
0 0 0
0 0 0
0 0 0
0 0 0
0 0 0
0 0 0
0 0 0
0 0 0
0 0 0
0 0 0
0 0 0
0 0 0
0 0 0
0 0 0
0 0 0
0 0 0
0 0 0
0 0 0
0 0 0
0 0 0
0 0 0
0 0 0
0 0 0
0 0 0
0 0 0
0 0 0
0 0 0
0 0 0
0 0 0
0 0 0
0 0 0
0 0 0
0 0 0
0 0 0
0 0 0
0 0 0
0 0 0
0 0 0
0 0 0
0 0 0
0 0 0
0 0 0
0 0 0
0 0 0
0 0 0
0 0 0
0 0 0
0 0 0
0 0 0
0 0 0
0 0 0
0 0 0
0 0 0
0 0 0
0 0 0
0 0 0
0 0 0
0 0 0
0 0 0
0 0 0
0 0 0
0 0 0
0 0 0
0 0 0
0 0 0
0 0 0
0 0 0
0 0 0
0 0 0
0 0 0
0 0 0
0 0 0
0 0 0
0 0 0
0 0 0
0 0 0
0 0 0
0 0 0
0 0 0
0 0 0
0 0 0
0 0 0
0 0 0
0 0 0
0 0 0
0 0 0
0 0 0
0 0 0
0 0 0
0 0 0
0 0 0
0 0 0
0 0 0
0 0 0
0 0 0
0 0 0
0 0 0
0 0 0
0 0 0
0 0 0
0 0 0
0 0 0
0 0 0
0 0 0
0 0 0
0 0 0
0 0 0
0 0 0
0 0 0
0 0 0
0 0 0
0 0 0
0 0 0
0 0 0
0 0 0
0 0 0
0 0 0
0 0 0
0 0 0
0 0 0
0 0 0
0 0 0
0 0 0
0 0 0
0 0 0
0 0 0
0 0 0
0 0 0
0 0 0
0 0 0
0 0 0
0 0 0
0 0 0
0 0 0
0 0 0
0 0 0
0 0 0
0 0 0
0 0 0
0 0 0
0 0 0
0 0 0
0 0 0
0 0 0
0 0 0
0 0 0
0 0 0
0 0 0
0 0 0
0 0 0
0 0 0
0 0 0
0 0 0
0 0 0
0 0 0
0 0 0
0 0 0
0 0 0
0 0 0
0 0 0
0 0 0
0 0 0
0 0 0
-0.000149767 1.19114e-06 0.000171879
-0.000799238 -0.000136901 1.89663e-05
-0.0013244 -1.35874e-05 0.0001688
-0.00223146 -0.000104909 6.42924e-05
-0.00291162 -3.09355e-05 0.000141286
-0.0037643 -8.16087e-05 7.24168e-05
-0.00439533 -3.28215e-05 0.000109694
-0.00505216 -5.90516e-05 6.00403e-05
-0.00551407 -2.32782e-05 7.53436e-05
-0.00590024 -3.72599e-05 3.35674e-05
-0.00611735 -6.15654e-06 3.90506e-05
-0.00618264 -1.71741e-05 -2.82064e-06
-0.00611091 1.60183e-05 3.24837e-06
-0.0058255 -7.45388e-07 -4.57516e-05
-0.00545809 4.16514e-05 -2.7606e-05
-0.00482455 8.77526e-06 -9.19199e-05
-0.0042092 6.98588e-05 -4.61097e-05
-0.00328948 6.64416e-06 -0.000137599
-0.00255824 0.000100454 -4.15191e-05
-0.00152902 -1.18121e-05 -0.000177456
-0.000936217 0.000141937 7.52592e-06
-0.000184054 -2.67951e-05 -0.000184776
0 0 0
0 0 0
-0.000162094 -5.47036e-05 0.000154804
-0.00120351 -0.000177239 2.00178e-06
-0.00207885 -6.51276e-05 0.000163539
-0.00346946 -8.59321e-05 6.51058e-05
-0.00458535 -2.39082e-05 0.000141068
-0.00588507 -3.83187e-05 7.64311e-05
-0.00689809 -1.14074e-05 0.0001098
-0.0078955 -2.72404e-05 6.16835e-05
-0.00862237 -1.90203e-05 7.21659e-05
-0.00920534 -3.74564e-05 2.99576e-05
-0.00953604 -3.85056e-05 2.98969e-05
-0.00963047 -6.02738e-05 -1.33205e-05
-0.00950154 -6.33928e-05 -1.35401e-05
-0.0090651 -8.83785e-05 -6.35449e-05
-0.00846593 -8.45049e-05 -5.22104e-05
-0.0075049 -0.000110375 -0.000115382
-0.00650447 -8.43585e-05 -7.56985e-05
-0.00511232 -0.000107112 -0.000161978
-0.00391236 -3.48992e-05 -6.77513e-05
-0.00234982 -5.77407e-05 -0.00019477
-0.00137336 8.36422e-05 4.66902e-06
-0.000179618 -2.70586e-05 -0.000185214
0 0 0
0 0 0
-0.000170108 -6.18909e-05 0.000191423
-0.00143033 -0.000196902 1.67939e-05
-0.00251236 -8.91031e-05 0.000202281
-0.00418178 -0.000122846 8.54876e-05
-0.00552702 -4.96376e-05 0.000171443
-0.00707238 -7.05886e-05 9.41619e-05
-0.00827784 -3.34099e-05 0.00013202
-0.00945506 -5.24769e-05 7.52075e-05
-0.0103115 -3.62959e-05 8.77642e-05
-0.0109933 -5.63603e-05 3.90142e-05
-0.0113763 -5.06101e-05 4.02775e-05
-0.0114796 -7.37845e-05 -8.8787e-06
-0.0113184 -6.991e-05 -7.32309e-06
-0.0107968 -9.73715e-05 -6.43478e-05
-0.0100812 -8.4787e-05 -4.97019e-05
-0.00894353 -0.000115642 -0.000122986
-0.00775279 -7.78718e-05 -7.69007e-05
-0.00610603 -0.000109926 -0.000178785
-0.00466925 -2.44068e-05 -7.2004e-05
-0.00281341 -6.30825e-05 -0.000221972
-0.0016196 7.73239e-05 4.52472e-06
-0.000202331 -3.75618e-05 -0.000211754
0 0 0
0 0 0
-0.000183108 -9.67258e-05 0.000183257
-0.00153677 -0.000208704 1.75332e-06
-0.00271719 -0.000132941 0.000197009
-0.00453221 -0.000147408 7.77586e-05
-0.00600127 -8.60035e-05 0.00016746
-0.00767809 -9.13762e-05 8.95402e-05
-0.00898922 -6.0068e-05 0.000128546
-0.0102621 -6.999e-05 7.12607e-05
-0.011189 -5.91347e-05 8.36244e-05
-0.0119229 -7.47607e-05 3.40572e-05
-0.0123334 -7.51617e-05 3.43954e-05
-0.0124409 -9.57106e-05 -1.58937e-05
-0.0122604 -9.89423e-05 -1.55083e-05
-0.0116926 -0.000122135 -7.37623e-05
-0.0109105 -0.000117373 -5.98595e-05
-0.00967681 -0.000138439 -0.000134125
-0.00837796 -0.00010994 -8.71697e-05
-0.00659263 -0.000123626 -0.000189823
-0.0050259 -5.37957e-05 -7.84585e-05
-0.0030154 -6.68552e-05 -0.000230541
-0.00172167 3.933e-05 8.32485e-06
-0.000206849 -3.46046e-05 -0.000215044
0 0 0
0 0 0
-0.000184861 -9.02629e-05 0.00020025
-0.00158658 -0.00019018 5.94925e-06
-0.00280987 -0.000135462 0.000213798
-0.0047024 -0.000154329 8.52289e-05
-0.00622763 -0.00010114 0.000181036
-0.00797338 -0.000107426 9.681e-05
-0.00933194 -7.60274e-05 0.000138737
-0.0106533 -8.35396e-05 7.71182e-05
-0.0116114 -6.88629e-05 9.0903e-05
-0.0123707 -8.00896e-05 3.80608e-05
-0.0127934 -7.49154e-05 3.93034e-05
-0.0129019 -9.00102e-05 -1.39942e-05
-0.0127129 -8.70075e-05 -1.25294e-05
-0.012121 -0.000104682 -7.43691e-05
-0.0113099 -9.45657e-05 -5.85315e-05
-0.0100266 -0.000111864 -0.000137911
-0.0086803 -8.22895e-05 -8.71761e-05
-0.0068229 -9.67654e-05 -0.000197549
-0.00519883 -3.65543e-05 -7.88713e-05
-0.0031095 -5.55531e-05 -0.000242175
-0.00177254 2.5704e-05 1.04829e-05
-0.000216369 -3.51596e-05 -0.000227176
0 0 0
0 0 0
-0.000192347 -9.9312e-05 0.000195721
-0.00160341 -0.00017954 -3.49692e-06
-0.00284027 -0.000146608 0.000209699
-0.00476549 -0.000159221 7.81032e-05
-0.00631499 -0.000118196 0.000177247
-0.00809427 -0.000118819 9.15234e-05
-0.00947583 -9.19055e-05 0.000135407
-0.0108221 -9.38905e-05 7.29934e-05
-0.0117964 -8.01126e-05 8.78632e-05
-0.0125693 -8.60933e-05 3.44121e-05
-0.0129986 -8.04269e-05 3.62848e-05
-0.0131081 -9.00773e-05 -1.76832e-05
-0.0129151 -8.64098e-05 -1.56422e-05
-0.0123107 -9.77823e-05 -7.83506e-05
-0.0114844 -8.82839e-05 -6.14839e-05
-0.0101749 -9.82655e-05 -0.000142069
-0.00880434 -7.3566e-05 -8.91641e-05
-0.00690989 -8.04993e-05 -0.000201453
-0.00525974 -3.44466e-05 -7.86048e-05
-0.00313484 -4.57066e-05 -0.000245368
-0.00178526 1.0565e-05 1.42512e-05
-0.000219861 -2.9102e-05 -0.000229146
0 0 0
0 0 0
-0.000191931 -8.21383e-05 0.000203446
-0.00160779 -0.00014723 -1.90097e-06
-0.00284645 -0.000126595 0.00021706
-0.00478761 -0.000139103 8.09011e-05
-0.00634516 -0.000107826 0.000183355
-0.00814135 -0.000108896 9.44583e-05
-0.0095316 -8.60943e-05 0.000140118
-0.0108905 -8.67506e-05 7.54898e-05
-0.0118712 -7.32475e-05 9.13171e-05
-0.0126509 -7.63009e-05 3.61796e-05
-0.0130833 -6.88078e-05 3.87025e-05
-0.0131934 -7.44882e-05 -1.68266e-05
-0.0129993 -6.84277e-05 -1.40517e-05
-0.0123886 -7.56353e-05 -7.86202e-05
-0.0115569 -6.51979e-05 -6.05389e-05
-0.010234 -7.22066e-05 -0.00014375
-0.00885466 -5.10504e-05 -8.86315e-05
-0.00694167 -5.76371e-05 -0.000204799
-0.00528289 -2.28685e-05 -7.80508e-05
-0.00314176 -3.4954e-05 -0.000250282
-0.00179011 4.14451e-06 1.55908e-05
-0.000223549 -2.56603e-05 -0.000234595
0 0 0
0 0 0
-0.000195742 -7.47247e-05 0.000200945
-0.00160695 -0.000123701 -6.82095e-06
-0.00284344 -0.000113044 0.000214601
-0.00478867 -0.00012165 7.65999e-05
-0.00634781 -9.93606e-05 0.000181039
-0.00815138 -9.85457e-05 9.10441e-05
-0.00954513 -8.06606e-05 0.000138099
-0.0109106 -7.92247e-05 7.28526e-05
-0.0118946 -6.76842e-05 8.96268e-05
-0.0126784 -6.81159e-05 3.40707e-05
-0.0131126 -6.10139e-05 3.73023e-05
-0.0132233 -6.35019e-05 -1.8645e-05
-0.0130289 -5.7519e-05 -1.51621e-05
-0.0124149 -6.10824e-05 -8.03024e-05
-0.0115806 -5.19592e-05 -6.12249e-05
-0.0102505 -5.52888e-05 -0.000145326
-0.0088672 -3.88233e-05 -8.85909e-05
-0.00694508 -4.21091e-05 -0.000206206
-0.00528395 -1.73531e-05 -7.6936e-05
-0.00313722 -2.52742e-05 -0.000251456
-0.00178798 3.50949e-07 1.77991e-05
-0.000225589 -1.87884e-05 -0.000235498
0 0 0
0 0 0
-0.000195175 -5.14961e-05 0.000204277
-0.001605 -8.61599e-05 -6.09028e-06
-0.00283869 -8.01485e-05 0.000217774
-0.00478603 -8.69018e-05 7.77364e-05
-0.00634461 -7.19541e-05 0.000183755
-0.00815207 -7.17072e-05 9.22677e-05
-0.00954676 -5.9026e-05 0.000140246
-0.0109158 -5.78814e-05 7.39164e-05
-0.0119011 -4.9174e-05 9.1221e-05
-0.0126871 -4.90351e-05 3.48168e-05
-0.0131222 -4.32136e-05 3.84193e-05
-0.0132333 -4.43875e-05 -1.83241e-05
-0.0130392 -3.92933e-05 -1.44304e-05
-0.0124233 -4.12929e-05 -8.05103e-05
-0.0115885 -3.4175e-05 -6.07769e-05
-0.0102545 -3.63716e-05 -0.000146169
-0.00887032 -2.47045e-05 -8.8294e-05
-0.00694354 -2.7531e-05 -0.000207747
-0.00528266 -1.1145e-05 -7.6607e-05
-0.00313357 -1.76746e-05 -0.000253603
-0.00178674 -1.43206e-06 1.8344e-05
-0.000226996 -1.4367e-05 -0.0002379
0 0 0
0 0 0
-0.000196755 -3.53934e-05 0.000203164
-0.00160342 -5.58658e-05 -8.13688e-06
-0.00283508 -5.35842e-05 0.00021667
-0.00478199 -5.71931e-05 7.58318e-05
-0.00633957 -4.86629e-05 0.000182723
-0.00814845 -4.79615e-05 9.07063e-05
-0.00954332 -4.02248e-05 0.000139355
-0.0109141 -3.88993e-05 7.27089e-05
-0.0119001 -3.32944e-05 9.05051e-05
-0.0126874 -3.25632e-05 3.38875e-05
-0.0131231 -2.86193e-05 3.78837e-05
-0.0132345 -2.86814e-05 -1.90671e-05
-0.0130406 -2.5182e-05 -1.47736e-05
-0.0124238 -2.57208e-05 -8.11389e-05
-0.0115887 -2.10881e-05 -6.08753e-05
-0.0102527 -2.17324e-05 -0.000146718
-0.00886824 -1.46208e-05 -8.80537e-05
-0.00693933 -1.57012e-05 -0.000208222
-0.00527916 -6.2709e-06 -7.59553e-05
-0.00312977 -9.63134e-06 -0.000254
-0.00178496 -8.24491e-07 1.93132e-05
-0.000227916 -7.69658e-06 -0.000238232
0 0 0
0 0 0
-0.000196536 -9.40699e-06 0.000204093
-0.00160252 -1.62306e-05 -7.91929e-06
-0.00283309 -1.52631e-05 0.000217561
-0.00478006 -1.6701e-05 7.61472e-05
-0.00633707 -1.39258e-05 0.000183501
-0.00814667 -1.39554e-05 9.10463e-05
-0.00954151 -1.15102e-05 0.000139978
-0.0109132 -1.13088e-05 7.30054e-05
-0.0118994 -9.56824e-06 9.097e-05
-0.0126872 -9.52327e-06 3.40917e-05
-0.0131232 -8.31089e-06 3.82078e-05
-0.0132347 -8.50345e-06 -1.899e-05
-0.0130409 -7.42459e-06 -1.45646e-05
-0.0124237 -7.78766e-06 -8.12195e-05
-0.0115886 -6.34605e-06 -6.07495e-05
-0.0102517 -6.79958e-06 -0.000146983
-0.00886734 -4.57315e-06 -8.79692e-05
-0.00693749 -5.24174e-06 -0.00020868
-0.0052778 -2.26977e-06 -7.58619e-05
-0.00312825 -3.70457e-06 -0.000254617
-0.00178436 -8.3856e-07 1.94527e-05
-0.000228281 -3.24257e-06 -0.000238918
0 0 0
0 0 0
-0.000196536 9.40699e-06 0.000204093
-0.00160252 1.62306e-05 -7.91929e-06
-0.00283309 1.52631e-05 0.000217561
-0.00478006 1.6701e-05 7.61472e-05
-0.00633707 1.39258e-05 0.000183501
-0.00814667 1.39554e-05 9.10463e-05
-0.00954151 1.15102e-05 0.000139978
-0.0109132 1.13088e-05 7.30054e-05
-0.0118994 9.56824e-06 9.097e-05
-0.0126872 9.52327e-06 3.40917e-05
-0.0131232 8.31089e-06 3.82078e-05
-0.0132347 8.50345e-06 -1.899e-05
-0.0130409 7.42459e-06 -1.45646e-05
-0.0124237 7.78766e-06 -8.12195e-05
-0.0115886 6.34605e-06 -6.07495e-05
-0.0102517 6.79958e-06 -0.000146983
-0.00886734 4.57315e-06 -8.79692e-05
-0.00693749 5.24174e-06 -0.00020868
-0.0052778 2.26977e-06 -7.58619e-05
-0.00312825 3.70457e-06 -0.000254617
-0.00178436 8.3856e-07 1.94527e-05
-0.000228281 3.24257e-06 -0.000238918
0 0 0
0 0 0
-0.000196755 3.53934e-05 0.000203164
-0.00160342 5.58658e-05 -8.13688e-06
-0.00283508 5.35842e-05 0.00021667
-0.00478199 5.71931e-05 7.58318e-05
-0.00633957 4.86629e-05 0.000182723
-0.00814845 4.79615e-05 9.07063e-05
-0.00954332 4.02248e-05 0.000139355
-0.0109141 3.88993e-05 7.27089e-05
-0.0119001 3.32944e-05 9.05051e-05
-0.0126874 3.25632e-05 3.38875e-05
-0.0131231 2.86193e-05 3.78837e-05
-0.0132345 2.86814e-05 -1.90671e-05
-0.0130406 2.5182e-05 -1.47736e-05
-0.0124238 2.57208e-05 -8.11389e-05
-0.0115887 2.10881e-05 -6.08753e-05
-0.0102527 2.17324e-05 -0.000146718
-0.00886824 1.46208e-05 -8.80537e-05
-0.00693933 1.57012e-05 -0.000208222
-0.00527916 6.2709e-06 -7.59553e-05
-0.00312977 9.63134e-06 -0.000254
-0.00178496 8.24491e-07 1.93132e-05
-0.000227916 7.69658e-06 -0.000238232
0 0 0
0 0 0
-0.000195175 5.14961e-05 0.000204277
-0.001605 8.61599e-05 -6.09028e-06
-0.00283869 8.01485e-05 0.000217774
-0.00478603 8.69018e-05 7.77364e-05
-0.00634461 7.19541e-05 0.000183755
-0.00815207 7.17072e-05 9.22677e-05
-0.00954676 5.9026e-05 0.000140246
-0.0109158 5.78814e-05 7.39164e-05
-0.0119011 4.9174e-05 9.1221e-05
-0.0126871 4.90351e-05 3.48168e-05
-0.0131222 4.32136e-05 3.84193e-05
-0.0132333 4.43875e-05 -1.83241e-05
-0.0130392 3.92933e-05 -1.44304e-05
-0.0124233 4.12929e-05 -8.05103e-05
-0.0115885 3.4175e-05 -6.07769e-05
-0.0102545 3.63716e-05 -0.000146169
-0.00887032 2.47045e-05 -8.8294e-05
-0.00694354 2.7531e-05 -0.000207747
-0.00528266 1.1145e-05 -7.6607e-05
-0.00313357 1.76746e-05 -0.000253603
-0.00178674 1.43206e-06 1.8344e-05
-0.000226996 1.4367e-05 -0.0002379
0 0 0
0 0 0
-0.000195742 7.47247e-05 0.000200945
-0.00160695 0.000123701 -6.82095e-06
-0.00284344 0.000113044 0.000214601
-0.00478867 0.00012165 7.65999e-05
-0.00634781 9.93606e-05 0.000181039
-0.00815138 9.85457e-05 9.10441e-05
-0.00954513 8.06606e-05 0.000138099
-0.0109106 7.92247e-05 7.28526e-05
-0.0118946 6.76842e-05 8.96268e-05
-0.0126784 6.81159e-05 3.40707e-05
-0.0131126 6.10139e-05 3.73023e-05
-0.0132233 6.35019e-05 -1.8645e-05
-0.0130289 5.7519e-05 -1.51621e-05
-0.0124149 6.10824e-05 -8.03024e-05
-0.0115806 5.19592e-05 -6.12249e-05
-0.0102505 5.52888e-05 -0.000145326
-0.0088672 3.88233e-05 -8.85909e-05
-0.00694508 4.21091e-05 -0.000206206
-0.00528395 1.73531e-05 -7.6936e-05
-0.00313722 2.52742e-05 -0.000251456
-0.00178798 -3.50949e-07 1.77991e-05
-0.000225589 1.87884e-05 -0.000235498
0 0 0
0 0 0
-0.000191931 8.21383e-05 0.000203446
-0.00160779 0.00014723 -1.90097e-06
-0.00284645 0.000126595 0.00021706
-0.00478761 0.000139103 8.09011e-05
-0.00634516 0.000107826 0.000183355
-0.00814135 0.000108896 9.44583e-05
-0.0095316 8.60943e-05 0.000140118
-0.0108905 8.67506e-05 7.54898e-05
-0.0118712 7.32475e-05 9.13171e-05
-0.0126509 7.63009e-05 3.61796e-05
-0.0130833 6.88078e-05 3.87025e-05
-0.0131934 7.44882e-05 -1.68266e-05
-0.0129993 6.84277e-05 -1.40517e-05
-0.0123886 7.56353e-05 -7.86202e-05
-0.0115569 6.51979e-05 -6.05389e-05
-0.010234 7.22066e-05 -0.00014375
-0.00885466 5.10504e-05 -8.86315e-05
-0.00694167 5.76371e-05 -0.000204799
-0.00528289 2.28685e-05 -7.80508e-05
-0.00314176 3.4954e-05 -0.000250282
-0.00179011 -4.14451e-06 1.55908e-05
-0.000223549 2.56603e-05 -0.000234595
0 0 0
0 0 0
-0.000192347 9.9312e-05 0.000195721
-0.00160341 0.00017954 -3.49692e-06
-0.00284027 0.000146608 0.000209699
-0.00476549 0.000159221 7.81032e-05
-0.00631499 0.000118196 0.000177247
-0.00809427 0.000118819 9.15234e-05
-0.00947583 9.19055e-05 0.000135407
-0.0108221 9.38905e-05 7.29934e-05
-0.0117964 8.01126e-05 8.78632e-05
-0.0125693 8.60933e-05 3.44121e-05
-0.0129986 8.04269e-05 3.62848e-05
-0.0131081 9.00773e-05 -1.76832e-05
-0.0129151 8.64098e-05 -1.56422e-05
-0.0123107 9.77823e-05 -7.83506e-05
-0.0114844 8.82839e-05 -6.14839e-05
-0.0101749 9.82655e-05 -0.000142069
-0.00880434 7.3566e-05 -8.91641e-05
-0.00690989 8.04993e-05 -0.000201453
-0.00525974 3.44466e-05 -7.86048e-05
-0.00313484 4.57066e-05 -0.000245368
-0.00178526 -1.0565e-05 1.42512e-05
-0.000219861 2.9102e-05 -0.000229146
0 0 0
0 0 0
-0.000184861 9.02629e-05 0.00020025
-0.00158658 0.00019018 5.94925e-06
-0.00280987 0.000135462 0.000213798
-0.0047024 0.000154329 8.52289e-05
-0.00622763 0.00010114 0.000181036
-0.00797338 0.000107426 9.681e-05
-0.00933194 7.60274e-05 0.000138737
-0.0106533 8.35396e-05 7.71182e-05
-0.0116114 6.88629e-05 9.0903e-05
-0.0123707 8.00896e-05 3.80608e-05
-0.0127934 7.49154e-05 3.93034e-05
-0.0129019 9.00102e-05 -1.39942e-05
-0.0127129 8.70075e-05 -1.25294e-05
-0.012121 0.000104682 -7.43691e-05
-0.0113099 9.45657e-05 -5.85315e-05
-0.0100266 0.000111864 -0.000137911
-0.0086803 8.22895e-05 -8.71761e-05
-0.0068229 9.67654e-05 -0.000197549
-0.00519883 3.65543e-05 -7.88713e-05
-0.0031095 5.55531e-05 -0.000242175
-0.00177254 -2.5704e-05 1.04829e-05
-0.000216369 3.51596e-05 -0.000227176
0 0 0
0 0 0
-0.000183108 9.67258e-05 0.000183257
-0.00153677 0.000208704 1.75332e-06
-0.00271719 0.000132941 0.000197009
-0.00453221 0.000147408 7.77586e-05
-0.00600127 8.60035e-05 0.00016746
-0.00767809 9.13762e-05 8.95402e-05
-0.00898922 6.0068e-05 0.000128546
-0.0102621 6.999e-05 7.12607e-05
-0.011189 5.91347e-05 8.36244e-05
-0.0119229 7.47607e-05 3.40572e-05
-0.0123334 7.51617e-05 3.43954e-05
-0.0124409 9.57106e-05 -1.58937e-05
-0.0122604 9.89423e-05 -1.55083e-05
-0.0116926 0.000122135 -7.37623e-05
-0.0109105 0.000117373 -5.98595e-05
-0.00967681 0.000138439 -0.000134125
-0.00837796 0.00010994 -8.71697e-05
-0.00659263 0.000123626 -0.000189823
-0.0050259 5.37957e-05 -7.84585e-05
-0.0030154 6.68552e-05 -0.000230541
-0.00172167 -3.933e-05 8.32485e-06
-0.000206849 3.46046e-05 -0.000215044
0 0 0
0 0 0
-0.000170108 6.18909e-05 0.000191423
-0.00143033 0.000196902 1.67939e-05
-0.00251236 8.91031e-05 0.000202281
-0.00418178 0.000122846 8.54876e-05
-0.00552702 4.96376e-05 0.000171443
-0.00707238 7.05886e-05 9.41619e-05
-0.00827784 3.34099e-05 0.00013202
-0.00945506 5.24769e-05 7.52075e-05
-0.0103115 3.62959e-05 8.77642e-05
-0.0109933 5.63603e-05 3.90142e-05
-0.0113763 5.06101e-05 4.02775e-05
-0.0114796 7.37845e-05 -8.8787e-06
-0.0113184 6.991e-05 -7.32309e-06
-0.0107968 9.73715e-05 -6.43478e-05
-0.0100812 8.4787e-05 -4.97019e-05
-0.00894353 0.000115642 -0.000122986
-0.00775279 7.78718e-05 -7.69007e-05
-0.00610603 0.000109926 -0.000178785
-0.00466925 2.44068e-05 -7.2004e-05
-0.00281341 6.30825e-05 -0.000221972
-0.0016196 -7.73239e-05 4.52472e-06
-0.000202331 3.75618e-05 -0.000211754
0 0 0
0 0 0
-0.000162094 5.47036e-05 0.000154804
-0.00120351 0.000177239 2.00178e-06
-0.00207885 6.51276e-05 0.000163539
-0.00346946 8.59321e-05 6.51058e-05
-0.00458535 2.39082e-05 0.000141068
-0.00588507 3.83187e-05 7.64311e-05
-0.00689809 1.14074e-05 0.0001098
-0.0078955 2.72404e-05 6.16835e-05
-0.00862237 1.90203e-05 7.21659e-05
-0.00920534 3.74564e-05 2.99576e-05
-0.00953604 3.85056e-05 2.98969e-05
-0.00963047 6.02738e-05 -1.33205e-05
-0.00950154 6.33928e-05 -1.35401e-05
-0.0090651 8.83785e-05 -6.35449e-05
-0.00846593 8.45049e-05 -5.22104e-05
-0.0075049 0.000110375 -0.000115382
-0.00650447 8.43585e-05 -7.56985e-05
-0.00511232 0.000107112 -0.000161978
-0.00391236 3.48992e-05 -6.77513e-05
-0.00234982 5.77407e-05 -0.00019477
-0.00137336 -8.36422e-05 4.66902e-06
-0.000179618 2.70586e-05 -0.000185214
0 0 0
0 0 0
-0.000149767 -1.19114e-06 0.000171879
-0.000799238 0.000136901 1.89663e-05
-0.0013244 1.35874e-05 0.0001688
-0.00223146 0.000104909 6.42924e-05
-0.00291162 3.09355e-05 0.000141286
-0.0037643 8.16087e-05 7.24168e-05
-0.00439533 3.28215e-05 0.000109694
-0.00505216 5.90516e-05 6.00403e-05
-0.00551407 2.32782e-05 7.53436e-05
-0.00590024 3.72599e-05 3.35674e-05
-0.00611735 6.15654e-06 3.90506e-05
-0.00618264 1.71741e-05 -2.82064e-06
-0.00611091 -1.60183e-05 3.24837e-06
-0.0058255 7.45388e-07 -4.57516e-05
-0.00545809 -4.16514e-05 -2.7606e-05
-0.00482455 -8.77526e-06 -9.19199e-05
-0.0042092 -6.98588e-05 -4.61097e-05
-0.00328948 -6.64416e-06 -0.000137599
-0.00255824 -0.000100454 -4.15191e-05
-0.00152902 1.18121e-05 -0.000177456
-0.000936217 -0.000141937 7.52592e-06
-0.000184054 2.67951e-05 -0.000184776
0 0 0
0 0 0
0 0 0
0 0 0
0 0 0
0 0 0
0 0 0
0 0 0
0 0 0
0 0 0
0 0 0
0 0 0
0 0 0
0 0 0
0 0 0
0 0 0
0 0 0
0 0 0
0 0 0
0 0 0
0 0 0
0 0 0
0 0 0
0 0 0
0 0 0
0 0 0
0 0 0
0 0 0
0 0 0
0 0 0
0 0 0
0 0 0
0 0 0
0 0 0
0 0 0
0 0 0
0 0 0
0 0 0
0 0 0
0 0 0
0 0 0
0 0 0
0 0 0
0 0 0
0 0 0
0 0 0
0 0 0
0 0 0
0 0 0
0 0 0
-4.57222e-05 0.000114472 0.000894818
-0.00116938 -3.43502e-05 0.00113205
-0.00207282 0.000119389 0.0014791
-0.00354197 2.71423e-05 0.00145939
-0.00470398 0.000102637 0.00149309
-0.00606363 4.39226e-05 0.00134357
-0.00711721 7.93311e-05 0.00122935
-0.0081574 3.66139e-05 0.00101622
-0.00891477 5.05212e-05 0.000822463
-0.00952494 1.39678e-05 0.000566195
-0.00987425 1.84299e-05 0.000324106
-0.00997919 -1.83288e-05 3.56238e-05
-0.00985412 -1.33668e-05 -0.000227942
-0.00940739 -5.58755e-05 -0.000532877
-0.00879357 -3.95095e-05 -0.000780957
-0.00779574 -9.39713e-05 -0.0010754
-0.00675961 -5.07379e-05 -0.00124795
-0.00529967 -0.000127014 -0.00148304
-0.00404757 -3.34526e-05 -0.00147149
-0.0023888 -0.00015035 -0.00155281
-0.00137232 3.74212e-05 -0.00116174
-7.96713e-05 -0.000146496 -0.000964428
0 0 0
0 0 0
-6.12476e-05 -9.13656e-06 0.00127501
-0.00185508 -0.000161069 0.00173544
-0.003391 4.48723e-06 0.00227117
-0.00569732 -5.87719e-06 0.00229907
-0.00762418 7.58718e-05 0.00232988
-0.00975334 5.71993e-05 0.00211562
-0.0114677 7.83751e-05 0.00191208
-0.0130906 4.44729e-05 0.00158131
-0.0143022 3.23895e-05 0.00125566
-0.0152471 -1.30995e-05 0.000851173
-0.0157893 -4.24737e-05 0.00045169
-0.0159423 -9.62328e-05 -3.58335e-06
-0.0157171 -0.000130493 -0.000436682
-0.0150113 -0.000188281 -0.000913095
-0.0139981 -0.000211762 -0.0013243
-0.0124399 -0.000264121 -0.00177277
-0.0107381 -0.000250081 -0.00206928
-0.00846775 -0.000282706 -0.00239983
-0.00639574 -0.000189437 -0.00240652
-0.00381928 -0.000199626 -0.00244629
-0.00211272 1.02657e-05 -0.00184594
-7.42546e-05 -0.000116225 -0.00140703
0 0 0
0 0 0
-5.40489e-05 -2.47085e-05 0.00151259
-0.00225166 -0.000195679 0.00210275
-0.00417098 -4.04691e-05 0.00276202
-0.00697608 -6.36829e-05 0.00281418
-0.00933244 3.15211e-05 0.00284571
-0.0119005 8.68425e-06 0.00258489
-0.0139727 4.23024e-05 0.00232584
-0.0159167 6.68618e-06 0.00191753
-0.0173672 3.5532e-06 0.0015106
-0.0184888 -4.29756e-05 0.00101241
-0.0191263 -6.52993e-05 0.000517778
-0.0192956 -0.000120328 -4.04048e-05
-0.0190093 -0.000147473 -0.000574105
-0.0181519 -0.000207345 -0.00115553
-0.0169214 -0.000221271 -0.00166184
-0.0150485 -0.000277306 -0.00220582
-0.0129902 -0.000249276 -0.00257212
-0.0102656 -0.000288856 -0.0029644
-0.00774825 -0.000179564 -0.00297297
-0.00464684 -0.000204766 -0.0029905
-0.00253761 2.12054e-07 -0.00224942
-8.13579e-05 -0.00012956 -0.00166931
0 0 0
0 0 0
-6.39188e-05 -0.000101592 0.00158609
-0.00244654 -0.000252607 0.00223456
-0.00455764 -0.000143944 0.00296166
-0.00762879 -0.000148719 0.00303361
-0.010219 -6.4826e-05 0.00306947
-0.0130249 -6.72504e-05 0.00279018
-0.015293 -3.35512e-05 0.00250453
-0.0174094 -5.2964e-05 0.00206018
-0.0189891 -5.37241e-05 0.00161282
-0.0202041 -8.78834e-05 0.00106945
-0.0208913 -0.000107997 0.000526911
-0.0210675 -0.000152093 -8.1577e-05
-0.020745 -0.000177756 -0.000666351
-0.0198044 -0.000224842 -0.00129893
-0.0184511 -0.000238152 -0.00185352
-0.0164058 -0.000276226 -0.00244222
-0.0141473 -0.000250603 -0.00284238
-0.0111737 -0.000265647 -0.00325816
-0.00841177 -0.000171031 -0.00326127
-0.00503021 -0.000169794 -0.0032543
-0.00272555 -1.25244e-05 -0.00243125
-8.02494e-05 -9.7281e-05 -0.00177779
0 0 0
0 0 0
-5.85507e-05 -0.000104233 0.00163037
-0.00253607 -0.000241236 0.00229658
-0.0047342 -0.000166585 0.00306293
-0.00794648 -0.00017999 0.00314021
-0.0106488 -0.000108116 0.0031822
-0.0135798 -0.000110573 0.00289073
-0.0159416 -7.45564e-05 0.00259375
-0.0181464 -8.73642e-05 0.00212934
-0.0197871 -7.92948e-05 0.00166287
-0.0210485 -0.000103168 0.00109554
-0.0217589 -0.000111372 0.000529999
-0.0219373 -0.000143289 -0.000104769
-0.0215975 -0.000155854 -0.000713904
-0.020613 -0.000190522 -0.00137349
-0.0192018 -0.00019215 -0.00195042
-0.0170665 -0.00022088 -0.00256376
-0.0147133 -0.000190868 -0.00297762
-0.011609 -0.000205268 -0.00340858
-0.0087318 -0.000124519 -0.00340307
-0.00520575 -0.000134308 -0.00338902
-0.00281372 -1.67234e-05 -0.00251722
-8.12051e-05 -8.65264e-05 -0.00183821
0 0 0
0 0 0
-6.35916e-05 -0.000127699 0.0016261
-0.00256806 -0.000241448 0.00229295
-0.00479692 -0.000199164 0.0030767
-0.00807051 -0.000208813 0.00315738
-0.0108225 -0.000152957 0.00320496
-0.013814 -0.000148598 0.00291075
-0.016221 -0.000115211 0.00261185
-0.0184702 -0.000118142 0.00214154
-0.0201415 -0.000106031 0.0016696
-0.021427 -0.000118484 0.00109458
-0.0221496 -0.00011974 0.000521565
-0.0223297 -0.000139145 -0.000122173
-0.0219816 -0.000144115 -0.000739674
-0.0209751 -0.000165351 -0.00140879
-0.0195346 -0.00016152 -0.00199326
-0.0173528 -0.000177228 -0.00261511
-0.0149522 -0.000149335 -0.00303229
-0.0117821 -0.000154255 -0.00346738
-0.00885192 -9.19446e-05 -0.00345452
-0.00526033 -9.69004e-05 -0.00343554
-0.00283876 -1.68917e-05 -0.00253984
-8.08429e-05 -6.31046e-05 -0.00185368
0 0 0
0 0 0
-6.03905e-05 -0.00010968 0.00162565
-0.00257632 -0.000202941 0.00228654
-0.00481222 -0.000178923 0.00307946
-0.00811447 -0.000190683 0.00315932
-0.0108853 -0.000148524 0.00321145
-0.0139066 -0.00014526 0.00291518
-0.0163324 -0.000116193 0.00261706
-0.0186039 -0.000116042 0.00214391
-0.0202886 -0.000101899 0.00167081
-0.0215863 -0.000108044 0.00109241
-0.0223146 -0.00010378 0.00051719
-0.0224958 -0.000114981 -0.000130479
-0.0221448 -0.000113415 -0.000750593
-0.0211273 -0.000126251 -0.00142411
-0.0196748 -0.000118135 -0.00201063
-0.0174697 -0.000127994 -0.00263689
-0.0150495 -0.000103088 -0.00305371
-0.0118468 -0.000107849 -0.00349208
-0.00889641 -6.12931e-05 -0.00347343
-0.00527496 -7.02333e-05 -0.00345519
-0.00284616 -1.60087e-05 -0.00254649
-8.06474e-05 -5.09845e-05 -0.00186295
0 0 0
0 0 0
-6.3132e-05 -0.000102152 0.00161348
-0.00257541 -0.000173661 0.00226801
-0.00480943 -0.000163132 0.00306408
-0.00812004 -0.000171809 0.00314364
-0.0108962 -0.000141785 0.00319919
-0.0139304 -0.00013709 0.00290336
-0.0163641 -0.00011352 0.0026076
-0.0186467 -0.000110064 0.00213501
-0.0203381 -9.64365e-05 0.00166351
-0.0216425 -9.74431e-05 0.00108553
-0.0223742 -9.09419e-05 0.000511359
-0.0225564 -9.57296e-05 -0.000136247
-0.0222045 -9.12673e-05 -0.000755635
-0.0211814 -9.72576e-05 -0.0014295
-0.0197233 -8.82162e-05 -0.00201513
-0.0175062 -9.22343e-05 -0.00264199
-0.0150774 -7.19952e-05 -0.00305691
-0.0118591 -7.33605e-05 -0.00349579
-0.00890204 -4.03252e-05 -0.00347311
-0.00526989 -4.65265e-05 -0.00345537
-0.0028431 -1.18203e-05 -0.00254093
-8.08816e-05 -3.47193e-05 -0.00186128
0 0 0
0 0 0
-6.16295e-05 -7.19074e-05 0.00160867
-0.0025723 -0.000122757 0.00225791
-0.00480257 -0.000117947 0.0030557
-0.00811676 -0.000125222 0.00313417
-0.0108935 -0.000105228 0.00319203
-0.0139341 -0.000102233 0.00289611
-0.0163707 -8.5322e-05 0.00260213
-0.0186591 -8.23349e-05 0.00212976
-0.0203535 -7.15931e-05 0.00165956
-0.0216615 -7.12273e-05 0.00108183
-0.0223951 -6.51152e-05 0.00050863
-0.022578 -6.71932e-05 -0.000138894
-0.0222261 -6.2421e-05 -0.000757464
-0.0212001 -6.5443e-05 -0.00143153
-0.0197401 -5.77485e-05 -0.0020162
-0.0175167 -5.99696e-05 -0.00264357
-0.0150849 -4.54075e-05 -0.00305691
-0.0118589 -4.69293e-05 -0.00349663
-0.00890056 -2.52142e-05 -0.00347128
-0.00526399 -3.11087e-05 -0.00345504
-0.00284042 -9.52952e-06 -0.00253738
-8.07317e-05 -2.51112e-05 -0.00186172
0 0 0
0 0 0
-6.28549e-05 -4.92481e-05 0.00160214
-0.00256971 -7.9612e-05 0.00224795
-0.00479691 -7.85782e-05 0.00304609
-0.00811078 -8.25706e-05 0.00312416
-0.0108866 -7.11518e-05 0.00318349
-0.0139296 -6.86591e-05 0.00288803
-0.0163671 -5.82001e-05 0.00259557
-0.0186584 -5.54359e-05 0.00212396
-0.0203542 -4.82409e-05 0.00165514
-0.0216643 -4.69366e-05 0.00107822
-0.022399 -4.23703e-05 0.000506217
-0.0225824 -4.25018e-05 -0.000140605
-0.0222306 -3.87399e-05 -0.000758107
-0.0212033 -3.94409e-05 -0.00143168
-0.0197423 -3.40817e-05 -0.00201527
-0.0175159 -3.43977e-05 -0.00264241
-0.015083 -2.53755e-05 -0.00305445
-0.0118536 -2.55487e-05 -0.00349426
-0.00889557 -1.31037e-05 -0.00346729
-0.00525818 -1.61731e-05 -0.00345181
-0.00283751 -4.67218e-06 -0.00253285
-8.09808e-05 -1.31077e-05 -0.00185976
0 0 0
0 0 0