# vtk DataFile Version 3.0
CFD lid driven cavity 3D
ASCII
DATASET STRUCTURED_POINTS
DIMENSIONS 25 25 25
ORIGIN 0 0 0
SPACING 0.0416667 0.0416667 0.0416667
CELL_DATA 13824
VECTORS velocity double
0 0 0
0 0 0
0 0 0
0 0 0
0 0 0
0 0 0
0 0 0
0 0 0
0 0 0
0 0 0
0 0 0
0 0 0
0 0 0
0 0 0
0 0 0
0 0 0
0 0 0
0 0 0
0 0 0
0 0 0
0 0 0
0 0 0
0 0 0
0 0 0
0 0 0
0 0 0
0 0 0
0 0 0
0 0 0
0 0 0
0 0 0
0 0 0
0 0 0
0 0 0
0 0 0
0 0 0
0 0 0
0 0 0
0 0 0
0 0 0
0 0 0
0 0 0
0 0 0
0 0 0
0 0 0
0 0 0
0 0 0
0 0 0
0 0 0
0 0 0
0 0 0
0 0 0
0 0 0
0 0 0
0 0 0
0 0 0
0 0 0
0 0 0
0 0 0
0 0 0
0 0 0
0 0 0
0 0 0
0 0 0
0 0 0
0 0 0
0 0 0
0 0 0
0 0 0
0 0 0
0 0 0
0 0 0
0 0 0
0 0 0
0 0 0
0 0 0
0 0 0
0 0 0
0 0 0
0 0 0
0 0 0
0 0 0
0 0 0
0 0 0
0 0 0
0 0 0
0 0 0
0 0 0
0 0 0
0 0 0
0 0 0
0 0 0
0 0 0
0 0 0
0 0 0
0 0 0
0 0 0
0 0 0
0 0 0
0 0 0
0 0 0
0 0 0
0 0 0
0 0 0
0 0 0
0 0 0
0 0 0
0 0 0
0 0 0
0 0 0
0 0 0
0 0 0
0 0 0
0 0 0
0 0 0
0 0 0
0 0 0
0 0 0
0 0 0
0 0 0
0 0 0
0 0 0
0 0 0
0 0 0
0 0 0
0 0 0
0 0 0
0 0 0
0 0 0
0 0 0
0 0 0
0 0 0
0 0 0
0 0 0
0 0 0
0 0 0
0 0 0
0 0 0
0 0 0
0 0 0
0 0 0
0 0 0
0 0 0
0 0 0
0 0 0
0 0 0
0 0 0
0 0 0
0 0 0
0 0 0
0 0 0
0 0 0
0 0 0
0 0 0
0 0 0
0 0 0
0 0 0
0 0 0
0 0 0
0 0 0
0 0 0
0 0 0
0 0 0
0 0 0
0 0 0
0 0 0
0 0 0
0 0 0
0 0 0
0 0 0
0 0 0
0 0 0
0 0 0
0 0 0
0 0 0
0 0 0
0 0 0
0 0 0
0 0 0
0 0 0
0 0 0
0 0 0
0 0 0
0 0 0
0 0 0
0 0 0
0 0 0
0 0 0
0 0 0
0 0 0
0 0 0
0 0 0
0 0 0
0 0 0
0 0 0
0 0 0
0 0 0
0 0 0
0 0 0
0 0 0
0 0 0
0 0 0
0 0 0
0 0 0
0 0 0
0 0 0
0 0 0
0 0 0
0 0 0
0 0 0
0 0 0
0 0 0
0 0 0
0 0 0
0 0 0
0 0 0
0 0 0
0 0 0
0 0 0
0 0 0
0 0 0
0 0 0
0 0 0
0 0 0
0 0 0
0 0 0
0 0 0
0 0 0
0 0 0
0 0 0
0 0 0
0 0 0
0 0 0
0 0 0
0 0 0
0 0 0
0 0 0
0 0 0
0 0 0
0 0 0
0 0 0
0 0 0
0 0 0
0 0 0
0 0 0
0 0 0
0 0 0
0 0 0
0 0 0
0 0 0
0 0 0
0 0 0
0 0 0
0 0 0
0 0 0
0 0 0
0 0 0
0 0 0
0 0 0
0 0 0
0 0 0
0 0 0
0 0 0
0 0 0
0 0 0
0 0 0
0 0 0
0 0 0
0 0 0
0 0 0
0 0 0
0 0 0
0 0 0
0 0 0
0 0 0
0 0 0
0 0 0
0 0 0
0 0 0
0 0 0
0 0 0
0 0 0
0 0 0
0 0 0
0 0 0
0 0 0
0 0 0
0 0 0
0 0 0
0 0 0
0 0 0
0 0 0
0 0 0
0 0 0
0 0 0
0 0 0
0 0 0
0 0 0
0 0 0
0 0 0
0 0 0
0 0 0
0 0 0
0 0 0
0 0 0
0 0 0
0 0 0
0 0 0
0 0 0
0 0 0
0 0 0
0 0 0
0 0 0
0 0 0
0 0 0
0 0 0
0 0 0
0 0 0
0 0 0
0 0 0
0 0 0
0 0 0
0 0 0
0 0 0
0 0 0
0 0 0
0 0 0
0 0 0
0 0 0
0 0 0
0 0 0
0 0 0
0 0 0
0 0 0
0 0 0
0 0 0
0 0 0
0 0 0
0 0 0
0 0 0
0 0 0
0 0 0
0 0 0
0 0 0
0 0 0
0 0 0
0 0 0
0 0 0
0 0 0
0 0 0
0 0 0
0 0 0
0 0 0
0 0 0
0 0 0
0 0 0
0 0 0
0 0 0
0 0 0
0 0 0
0 0 0
0 0 0
0 0 0
0 0 0
0 0 0
0 0 0
0 0 0
0 0 0
0 0 0
0 0 0
0 0 0
0 0 0
0 0 0
0 0 0
0 0 0
0 0 0
0 0 0
0 0 0
0 0 0
0 0 0
0 0 0
0 0 0
0 0 0
0 0 0
0 0 0
0 0 0
0 0 0
0 0 0
0 0 0
0 0 0
0 0 0
0 0 0
0 0 0
0 0 0
0 0 0
0 0 0
0 0 0
0 0 0
0 0 0
0 0 0
0 0 0
0 0 0
0 0 0
0 0 0
0 0 0
0 0 0
0 0 0
0 0 0
0 0 0
0 0 0
0 0 0
0 0 0
0 0 0
0 0 0
0 0 0
0 0 0
0 0 0
0 0 0
0 0 0
0 0 0
0 0 0
0 0 0
0 0 0
0 0 0
0 0 0
0 0 0
0 0 0
0 0 0
0 0 0
0 0 0
0 0 0
0 0 0
0 0 0
0 0 0
0 0 0
0 0 0
0 0 0
0 0 0
0 0 0
0 0 0
0 0 0
0 0 0
0 0 0
0 0 0
0 0 0
0 0 0
0 0 0
0 0 0
0 0 0
0 0 0
0 0 0
0 0 0
0 0 0
0 0 0
0 0 0
0 0 0
0 0 0
0 0 0
0 0 0
0 0 0
0 0 0
0 0 0
0 0 0
0 0 0
0 0 0
0 0 0
0 0 0
0 0 0
0 0 0
0 0 0
0 0 0
0 0 0
0 0 0
0 0 0
0 0 0
0 0 0
0 0 0
0 0 0
0 0 0
0 0 0
0 0 0
0 0 0
0 0 0
0 0 0
0 0 0
0 0 0
0 0 0
0 0 0
0 0 0
0 0 0
0 0 0
0 0 0
0 0 0
0 0 0
0 0 0
0 0 0
0 0 0
0 0 0
0 0 0
0 0 0
0 0 0
0 0 0
0 0 0
0 0 0
0 0 0
0 0 0
0 0 0
0 0 0
0 0 0
0 0 0
0 0 0
0 0 0
0 0 0
0 0 0
0 0 0
0 0 0
0 0 0
0 0 0
0 0 0
0 0 0
0 0 0
0 0 0
0 0 0
0 0 0
0 0 0
0 0 0
0 0 0
0 0 0
0 0 0
0 0 0
0 0 0
0 0 0
0 0 0
0 0 0
0 0 0
0 0 0
0 0 0
0 0 0
0 0 0
0 0 0
0 0 0
0 0 0
0 0 0
0 0 0
0 0 0
0 0 0
0 0 0
0 0 0
0 0 0
0 0 0
0 0 0
0 0 0
0 0 0
0 0 0
0 0 0
0 0 0
0 0 0
0 0 0
0 0 0
0 0 0
0 0 0
0 0 0
0 0 0
0 0 0
0 0 0
0 0 0
0 0 0
0 0 0
0 0 0
0 0 0
0 0 0
0 0 0
0 0 0
0 0 0
0 0 0
0 0 0
0 0 0
0 0 0
0 0 0
0 0 0
0 0 0
0 0 0
0 0 0
0 0 0
0 0 0
0 0 0
0 0 0
0 0 0
0 0 0
0 0 0
0 0 0
0 0 0
0 0 0
0 0 0
0 0 0
0 0 0
0 0 0
0 0 0
0 0 0
0 0 0
0 0 0
-0.000137249 -4.32643e-06 0.000167279
-0.00070182 -0.000139549 1.76714e-05
-0.00118004 -1.81666e-05 0.000167951
-0.00204528 -0.000110377 6.4967e-05
-0.00271695 -3.62172e-05 0.000144727
-0.00357769 -8.86364e-05 7.63266e-05
-0.00423328 -3.9236e-05 0.00011617
-0.0049237 -6.6965e-05 6.66266e-05
-0.00542421 -3.03456e-05 8.40762e-05
-0.00584807 -4.55789e-05 4.19648e-05
-0.00610059 -1.32291e-05 4.93349e-05
-0.00618961 -2.56384e-05 6.17111e-06
-0.0061345 9.56005e-06 1.42996e-05
-0.00584435 -9.3306e-06 -3.75101e-05
-0.00546556 3.63034e-05 -1.62357e-05
-0.00479696 -1.62471e-07 -8.5327e-05
-0.00415126 6.58969e-05 -3.38772e-05
-0.00319137 -2.91796e-06 -0.000132094
-0.00244523 9.78065e-05 -2.67156e-05
-0.00142192 -2.14435e-05 -0.000170619
-0.000859944 0.000139686 2.51184e-05
-0.0001804 -3.44555e-05 -0.00017512
0 0 0
0 0 0
-0.00015578 -8.61859e-05 0.000142412
-0.0010861 -0.000225716 -7.69698e-06
-0.00190893 -0.000109758 0.000155772
-0.00326707 -0.000129178 5.94573e-05
-0.00440072 -5.9374e-05 0.000139465
-0.00574721 -7.1954e-05 7.56812e-05
-0.00682902 -4.21922e-05 0.000111906
-0.00790631 -6.00051e-05 6.37112e-05
-0.00871485 -5.4154e-05 7.57942e-05
-0.00937272 -7.84934e-05 3.25038e-05
-0.00976676 -8.57911e-05 3.30938e-05
-0.00990071 -0.000116429 -1.2605e-05
-0.00979031 -0.000127383 -1.24433e-05
-0.00933461 -0.000161953 -6.65125e-05
-0.00869465 -0.000163343 -5.3615e-05
-0.00765363 -0.000195213 -0.000122119
-0.00657053 -0.000165641 -7.71614e-05
-0.00508128 -0.000186394 -0.000169138
-0.00382048 -9.75667e-05 -6.36692e-05
-0.00223178 -0.000111985 -0.000196371
-0.00127948 5.37752e-05 1.763e-05
-0.000171133 -5.26297e-05 -0.000179731
0 0 0
0 0 0
-0.000158966 -0.000105445 0.000186846
-0.00132267 -0.000269673 1.45443e-05
-0.00237452 -0.00015581 0.00020481
-0.00404942 -0.000187856 8.99567e-05
-0.00545628 -0.000103266 0.000180755
-0.00709766 -0.00012131 0.000103684
-0.00841964 -7.98035e-05 0.000144256
-0.00972142 -0.000101373 8.65369e-05
-0.0106974 -8.82106e-05 0.000100266
-0.0114837 -0.000116245 4.96001e-05
-0.0119497 -0.000118794 5.10803e-05
-0.0121003 -0.000153927 -1.44514e-06
-0.0119536 -0.000160391 1.26465e-07
-0.0113946 -0.000200709 -6.21277e-05
-0.0106085 -0.000194869 -4.62151e-05
-0.00934772 -0.000233745 -0.00012647
-0.00802475 -0.000190892 -7.50824e-05
-0.00622426 -0.000220303 -0.000184718
-0.00467507 -0.000112176 -6.5651e-05
-0.00274668 -0.00013926 -0.000223386
-0.00154774 3.55516e-05 2.07133e-05
-0.000199466 -7.28864e-05 -0.000205129
0 0 0
0 0 0
-0.000177466 -0.000162941 0.000174572
-0.00145371 -0.000316728 -5.96411e-06
-0.00263174 -0.000235828 0.000196436
-0.00449304 -0.000249506 7.86043e-05
-0.006067 -0.000174118 0.000174135
-0.00788672 -0.000175037 9.60394e-05
-0.00935745 -0.000137633 0.000137899
-0.0107943 -0.000149379 7.91923e-05
-0.0118728 -0.000141703 9.23193e-05
-0.0127354 -0.000166153 4.0103e-05
-0.0132435 -0.000176669 3.98593e-05
-0.0134024 -0.000211001 -1.47333e-05
-0.0132296 -0.000227058 -1.52917e-05
-0.0126057 -0.00026454 -7.97963e-05
-0.0117237 -0.000268076 -6.5376e-05
-0.0103262 -0.000296478 -0.000147351
-0.00884813 -0.000261953 -9.49177e-05
-0.00685552 -0.000269261 -0.000205451
-0.00512719 -0.000173043 -7.98544e-05
-0.00299737 -0.000168985 -0.000239522
-0.0016698 -2.28627e-05 2.1259e-05
-0.000202935 -8.38944e-05 -0.000212752
0 0 0
0 0 0
-0.00017721 -0.000159291 0.00019615
-0.00152427 -0.000305202 8.42294e-07
-0.00276906 -0.000247724 0.000218874
-0.00474496 -0.000267512 9.07923e-05
-0.00641066 -0.000200626 0.000193434
-0.00833755 -0.000202392 0.000108308
-0.00988896 -0.000164089 0.000153172
-0.0114043 -0.00017256 8.94404e-05
-0.0125373 -0.000159821 0.000103691
-0.0134424 -0.000178639 4.75064e-05
-0.0139723 -0.000182058 4.77387e-05
-0.0141341 -0.000209436 -1.06113e-05
-0.0139468 -0.00021751 -1.05313e-05
-0.0132837 -0.000247845 -7.95276e-05
-0.0123504 -0.00024435 -6.34772e-05
-0.010872 -0.000267871 -0.000151674
-0.00931118 -0.000231608 -9.52827e-05
-0.00720511 -0.000240108 -0.000214802
-0.00538148 -0.000154915 -8.06115e-05
-0.00313553 -0.000158641 -0.000252921
-0.00174071 -3.99945e-05 2.48042e-05
-0.00021604 -8.64283e-05 -0.000225407
0 0 0
0 0 0
-0.000187894 -0.000174276 0.000189315
-0.00155712 -0.000300909 -1.24225e-05
-0.0028318 -0.000269066 0.0002128
-0.0048655 -0.000284298 8.08579e-05
-0.00657969 -0.000231233 0.000187663
-0.00856666 -0.00022749 0.000100567
-0.0101639 -0.000193339 0.00014767
-0.0117251 -0.000195128 8.28011e-05
-0.0128902 -0.000181883 9.81048e-05
-0.0138208 -0.000193555 4.09571e-05
-0.0143638 -0.000194515 4.15989e-05
-0.0145276 -0.000214051 -1.78476e-05
-0.0143316 -0.000219216 -1.74788e-05
-0.0136447 -0.000240593 -8.78439e-05
-0.01268 -0.000235775 -7.08874e-05
-0.0111523 -0.000249856 -0.000160781
-0.00954163 -0.000218165 -0.000101795
-0.00736855 -0.000218796 -0.000223668
-0.00549253 -0.000150521 -8.38587e-05
-0.00318507 -0.000148059 -0.000260237
-0.00176313 -5.91896e-05 2.7299e-05
-0.000219362 -8.27073e-05 -0.000230046
0 0 0
0 0 0
-0.000186317 -0.000148016 0.000199343
-0.00156965 -0.000254778 -1.01609e-05
-0.00285498 -0.000237432 0.000222702
-0.0049212 -0.00025362 8.53127e-05
-0.00665827 -0.000212697 0.000196214
-0.00867943 -0.000210147 0.000105409
-0.0102996 -0.000180623 0.000154521
-0.0118869 -0.000180377 8.70441e-05
-0.0130684 -0.00016621 0.000103279
-0.0140134 -0.000172947 4.40976e-05
-0.0145635 -0.000169683 4.52619e-05
-0.0147284 -0.000182378 -1.61113e-05
-0.0145284 -0.000182266 -1.51484e-05
-0.0138279 -0.000196572 -8.78265e-05
-0.0128475 -0.000188745 -6.96862e-05
-0.0112917 -0.000198387 -0.000162796
-0.00965645 -0.000170898 -0.000101309
-0.00744584 -0.000172624 -0.000227827
-0.00554522 -0.000120367 -8.32079e-05
-0.00320595 -0.000122463 -0.000266068
-0.00177372 -5.80074e-05 2.95074e-05
-0.000224914 -7.29652e-05 -0.00023597
0 0 0
0 0 0
-0.000191658 -0.000133225 0.000195516
-0.00157311 -0.000216969 -1.73621e-05
-0.00286037 -0.00021124 0.000218904
-0.00493904 -0.000223771 7.90608e-05
-0.00668547 -0.000194428 0.000192491
-0.00872374 -0.000190738 0.000100268
-0.0103555 -0.000167087 0.000151062
-0.0119573 -0.000164287 8.28007e-05
-0.0131481 -0.000151349 0.00010011
-0.0141018 -0.000153769 4.03911e-05
-0.0146563 -0.000148983 4.23028e-05
-0.0148223 -0.00015596 -1.96255e-05
-0.0146203 -0.000153576 -1.79392e-05
-0.0139119 -0.000161647 -9.13795e-05
-0.0129226 -0.000153568 -7.21315e-05
-0.0113503 -0.000158116 -0.000166387
-0.0097016 -0.000136174 -0.000102902
-0.00747038 -0.000135494 -0.000231227
-0.0055586 -9.75374e-05 -8.32416e-05
-0.0032053 -9.81531e-05 -0.000268972
-0.00177233 -5.36268e-05 3.136e-05
-0.000226928 -5.97119e-05 -0.000238174
0 0 0
0 0 0
-0.000190434 -9.35912e-05 0.000199838
-0.00157217 -0.000153903 -1.65038e-05
-0.00285781 -0.000152325 0.000223063
-0.00494307 -0.000162468 8.06626e-05
-0.00669266 -0.000142753 0.000196123
-0.00874029 -0.000140523 0.000102105
-0.0103772 -0.000123518 0.000154017
-0.0119872 -0.000121122 8.44812e-05
-0.0131827 -0.000110967 0.00010238
-0.0141414 -0.000111784 4.1664e-05
-0.0146984 -0.000107044 4.39474e-05
-0.014865 -0.000110867 -1.89283e-05
-0.0146624 -0.000107719 -1.68349e-05
-0.0139497 -0.000112401 -9.14109e-05
-0.0129564 -0.00010552 -7.14466e-05
-0.011375 -0.000108314 -0.000167274
-0.00972029 -9.266e-05 -0.000102428
-0.00747812 -9.29408e-05 -0.000232998
-0.00556223 -6.77712e-05 -8.26518e-05
-0.00320259 -6.97892e-05 -0.000271429
-0.00177097 -4.09993e-05 3.23642e-05
-0.000229159 -4.41806e-05 -0.000240817
0 0 0
0 0 0
-0.000192605 -6.31133e-05 0.000198114
-0.00157087 -9.94261e-05 -1.95563e-05
-0.00285462 -0.000100508 0.000221302
-0.00494106 -0.000106379 7.78153e-05
-0.00669111 -9.51801e-05 0.000194402
-0.0087427 -9.3272e-05 9.97041e-05
-0.0103818 -8.28244e-05 0.000152448
-0.011996 -8.05502e-05 8.25289e-05
-0.0131938 -7.38162e-05 0.000101016
-0.0141554 -7.3373e-05 4.00532e-05
-0.0147139 -6.97607e-05 4.27915e-05
-0.014881 -7.10875e-05 -2.03281e-05
-0.0146781 -6.84196e-05 -1.77807e-05
-0.0139631 -7.02386e-05 -9.27061e-05
-0.0129678 -6.54443e-05 -7.21148e-05
-0.0113815 -6.61923e-05 -0.000168504
-0.00972395 -5.65349e-05 -0.000102664
-0.00747641 -5.60238e-05 -0.000234136
-0.00555931 -4.14384e-05 -8.22929e-05
-0.00319769 -4.21954e-05 -0.000272421
-0.00176818 -2.60646e-05 3.32522e-05
-0.000230077 -2.67407e-05 -0.000241655
0 0 0
0 0 0
-0.000192175 -1.76378e-05 0.000199313
-0.00156977 -2.97176e-05 -1.93189e-05
-0.00285226 -2.97932e-05 0.000222449
-0.00493943 -3.20288e-05 7.82239e-05
-0.00668941 -2.83604e-05 0.000195413
-0.0087428 -2.80186e-05 0.000100183
-0.0103827 -2.46793e-05 0.00015328
-0.0119987 -2.41831e-05 8.29766e-05
-0.0131976 -2.20744e-05 0.000101661
-0.0141603 -2.21378e-05 4.03951e-05
-0.0147195 -2.10372e-05 4.32637e-05
-0.0148869 -2.16567e-05 -2.01451e-05
-0.014684 -2.0853e-05 -1.74564e-05
-0.013968 -2.16546e-05 -9.27275e-05
-0.0129719 -2.01731e-05 -7.18994e-05
-0.0113836 -2.07042e-05 -0.000168764
-0.00972503 -1.76882e-05 -0.000102496
-0.00747523 -1.79207e-05 -0.000234638
-0.0055579 -1.33518e-05 -8.20926e-05
-0.00319556 -1.40364e-05 -0.00027311
-0.00176713 -8.88219e-06 3.35266e-05
-0.000230673 -9.25604e-06 -0.000242413
0 0 0
0 0 0
-0.000192175 1.76378e-05 0.000199313
-0.00156977 2.97176e-05 -1.93189e-05
-0.00285226 2.97932e-05 0.000222449
-0.00493943 3.20288e-05 7.82239e-05
-0.00668941 2.83604e-05 0.000195413
-0.0087428 2.80186e-05 0.000100183
-0.0103827 2.46793e-05 0.00015328
-0.0119987 2.41831e-05 8.29766e-05
-0.0131976 2.20744e-05 0.000101661
-0.0141603 2.21378e-05 4.03951e-05
-0.0147195 2.10372e-05 4.32637e-05
-0.0148869 2.16567e-05 -2.01451e-05
-0.014684 2.0853e-05 -1.74564e-05
-0.013968 2.16546e-05 -9.27275e-05
-0.0129719 2.01731e-05 -7.18994e-05
-0.0113836 2.07042e-05 -0.000168764
-0.00972503 1.76882e-05 -0.000102496
-0.00747523 1.79207e-05 -0.000234638
-0.0055579 1.33518e-05 -8.20926e-05
-0.00319556 1.40364e-05 -0.00027311
-0.00176713 8.88219e-06 3.35266e-05
-0.000230673 9.25604e-06 -0.000242413
0 0 0
0 0 0
-0.000192605 6.31133e-05 0.000198114
-0.00157087 9.94261e-05 -1.95563e-05
-0.00285462 0.000100508 0.000221302
-0.00494106 0.000106379 7.78153e-05
-0.00669111 9.51801e-05 0.000194402
-0.0087427 9.3272e-05 9.97041e-05
-0.0103818 8.28244e-05 0.000152448
-0.011996 8.05502e-05 8.25289e-05
-0.0131938 7.38162e-05 0.000101016
-0.0141554 7.3373e-05 4.00532e-05
-0.0147139 6.97607e-05 4.27915e-05
-0.014881 7.10875e-05 -2.03281e-05
-0.0146781 6.84196e-05 -1.77807e-05
-0.0139631 7.02386e-05 -9.27061e-05
-0.0129678 6.54443e-05 -7.21148e-05
-0.0113815 6.61923e-05 -0.000168504
-0.00972395 5.65349e-05 -0.000102664
-0.00747641 5.60238e-05 -0.000234136
-0.00555931 4.14384e-05 -8.22929e-05
-0.00319769 4.21954e-05 -0.000272421
-0.00176818 2.60646e-05 3.32522e-05
-0.000230077 2.67407e-05 -0.000241655
0 0 0
0 0 0
-0.000190434 9.35912e-05 0.000199838
-0.00157217 0.000153903 -1.65038e-05
-0.00285781 0.000152325 0.000223063
-0.00494307 0.000162468 8.06626e-05
-0.00669266 0.000142753 0.000196123
-0.00874029 0.000140523 0.000102105
-0.0103772 0.000123518 0.000154017
-0.0119872 0.000121122 8.44812e-05
-0.0131827 0.000110967 0.00010238
-0.0141414 0.000111784 4.1664e-05
-0.0146984 0.000107044 4.39474e-05
-0.014865 0.000110867 -1.89283e-05
-0.0146624 0.000107719 -1.68349e-05
-0.0139497 0.000112401 -9.14109e-05
-0.0129564 0.00010552 -7.14466e-05
-0.011375 0.000108314 -0.000167274
-0.00972029 9.266e-05 -0.000102428
-0.00747812 9.29408e-05 -0.000232998
-0.00556223 6.77712e-05 -8.26518e-05
-0.00320259 6.97892e-05 -0.000271429
-0.00177097 4.09993e-05 3.23642e-05
-0.000229159 4.41806e-05 -0.000240817
0 0 0
0 0 0
-0.000191658 0.000133225 0.000195516
-0.00157311 0.000216969 -1.73621e-05
-0.00286037 0.00021124 0.000218904
-0.00493904 0.000223771 7.90608e-05
-0.00668547 0.000194428 0.000192491
-0.00872374 0.000190738 0.000100268
-0.0103555 0.000167087 0.000151062
-0.0119573 0.000164287 8.28007e-05
-0.0131481 0.000151349 0.00010011
-0.0141018 0.000153769 4.03911e-05
-0.0146563 0.000148983 4.23028e-05
-0.0148223 0.00015596 -1.96255e-05
-0.0146203 0.000153576 -1.79392e-05
-0.0139119 0.000161647 -9.13795e-05
-0.0129226 0.000153568 -7.21315e-05
-0.0113503 0.000158116 -0.000166387
-0.0097016 0.000136174 -0.000102902
-0.00747038 0.000135494 -0.000231227
-0.0055586 9.75374e-05 -8.32416e-05
-0.0032053 9.81531e-05 -0.000268972
-0.00177233 5.36268e-05 3.136e-05
-0.000226928 5.97119e-05 -0.000238174
0 0 0
0 0 0
-0.000186317 0.000148016 0.000199343
-0.00156965 0.000254778 -1.01609e-05
-0.00285498 0.000237432 0.000222702
-0.0049212 0.00025362 8.53127e-05
-0.00665827 0.000212697 0.000196214
-0.00867943 0.000210147 0.000105409
-0.0102996 0.000180623 0.000154521
-0.0118869 0.000180377 8.70441e-05
-0.0130684 0.00016621 0.000103279
-0.0140134 0.000172947 4.40976e-05
-0.0145635 0.000169683 4.52619e-05
-0.0147284 0.000182378 -1.61113e-05
-0.0145284 0.000182266 -1.51484e-05
-0.0138279 0.000196572 -8.78265e-05
-0.0128475 0.000188745 -6.96862e-05
-0.0112917 0.000198387 -0.000162796
-0.00965645 0.000170898 -0.000101309
-0.00744584 0.000172624 -0.000227827
-0.00554522 0.000120367 -8.32079e-05
-0.00320595 0.000122463 -0.000266068
-0.00177372 5.80074e-05 2.95074e-05
-0.000224914 7.29652e-05 -0.00023597
0 0 0
0 0 0
-0.000187894 0.000174276 0.000189315
-0.00155712 0.000300909 -1.24225e-05
-0.0028318 0.000269066 0.0002128
-0.0048655 0.000284298 8.08579e-05
-0.00657969 0.000231233 0.000187663
-0.00856666 0.00022749 0.000100567
-0.0101639 0.000193339 0.00014767
-0.0117251 0.000195128 8.28011e-05
-0.0128902 0.000181883 9.81048e-05
-0.0138208 0.000193555 4.09571e-05
-0.0143638 0.000194515 4.15989e-05
-0.0145276 0.000214051 -1.78476e-05
-0.0143316 0.000219216 -1.74788e-05
-0.0136447 0.000240593 -8.78439e-05
-0.01268 0.000235775 -7.08874e-05
-0.0111523 0.000249856 -0.000160781
-0.00954163 0.000218165 -0.000101795
-0.00736855 0.000218796 -0.000223668
-0.00549253 0.000150521 -8.38587e-05
-0.00318507 0.000148059 -0.000260237
-0.00176313 5.91896e-05 2.7299e-05
-0.000219362 8.27073e-05 -0.000230046
0 0 0
0 0 0
-0.00017721 0.000159291 0.00019615
-0.00152427 0.000305202 8.42294e-07
-0.00276906 0.000247724 0.000218874
-0.00474496 0.000267512 9.07923e-05
-0.00641066 0.000200626 0.000193434
-0.00833755 0.000202392 0.000108308
-0.00988896 0.000164089 0.000153172
-0.0114043 0.00017256 8.94404e-05
-0.0125373 0.000159821 0.000103691
-0.0134424 0.000178639 4.75064e-05
-0.0139723 0.000182058 4.77387e-05
-0.0141341 0.000209436 -1.06113e-05
-0.0139468 0.00021751 -1.05313e-05
-0.0132837 0.000247845 -7.95276e-05
-0.0123504 0.00024435 -6.34772e-05
-0.010872 0.000267871 -0.000151674
-0.00931118 0.000231608 -9.52827e-05
-0.00720511 0.000240108 -0.000214802
-0.00538148 0.000154915 -8.06115e-05
-0.00313553 0.000158641 -0.000252921
-0.00174071 3.99945e-05 2.48042e-05
-0.00021604 8.64283e-05 -0.000225407
0 0 0
0 0 0
-0.000177466 0.000162941 0.000174572
-0.00145371 0.000316728 -5.96411e-06
-0.00263174 0.000235828 0.000196436
-0.00449304 0.000249506 7.86043e-05
-0.006067 0.000174118 0.000174135
-0.00788672 0.000175037 9.60394e-05
-0.00935745 0.000137633 0.000137899
-0.0107943 0.000149379 7.91923e-05
-0.0118728 0.000141703 9.23193e-05
-0.0127354 0.000166153 4.0103e-05
-0.0132435 0.000176669 3.98593e-05
-0.0134024 0.000211001 -1.47333e-05
-0.0132296 0.000227058 -1.52917e-05
-0.0126057 0.00026454 -7.97963e-05
-0.0117237 0.000268076 -6.5376e-05
-0.0103262 0.000296478 -0.000147351
-0.00884813 0.000261953 -9.49177e-05
-0.00685552 0.000269261 -0.000205451
-0.00512719 0.000173043 -7.98544e-05
-0.00299737 0.000168985 -0.000239522
-0.0016698 2.28627e-05 2.1259e-05
-0.000202935 8.38944e-05 -0.000212752
0 0 0
0 0 0
-0.000158966 0.000105445 0.000186846
-0.00132267 0.000269673 1.45443e-05
-0.00237452 0.00015581 0.00020481
-0.00404942 0.000187856 8.99567e-05
-0.00545628 0.000103266 0.000180755
-0.00709766 0.00012131 0.000103684
-0.00841964 7.98035e-05 0.000144256
-0.00972142 0.000101373 8.65369e-05
-0.0106974 8.82106e-05 0.000100266
-0.0114837 0.000116245 4.96001e-05
-0.0119497 0.000118794 5.10803e-05
-0.0121003 0.000153927 -1.44514e-06
-0.0119536 0.000160391 1.26465e-07
-0.0113946 0.000200709 -6.21277e-05
-0.0106085 0.000194869 -4.62151e-05
-0.00934772 0.000233745 -0.00012647
-0.00802475 0.000190892 -7.50824e-05
-0.00622426 0.000220303 -0.000184718
-0.00467507 0.000112176 -6.5651e-05
-0.00274668 0.00013926 -0.000223386
-0.00154774 -3.55516e-05 2.07133e-05
-0.000199466 7.28864e-05 -0.000205129
0 0 0
0 0 0
-0.00015578 8.61859e-05 0.000142412
-0.0010861 0.000225716 -7.69698e-06
-0.00190893 0.000109758 0.000155772
-0.00326707 0.000129178 5.94573e-05
-0.00440072 5.9374e-05 0.000139465
-0.00574721 7.1954e-05 7.56812e-05
-0.00682902 4.21922e-05 0.000111906
-0.00790631 6.00051e-05 6.37112e-05
-0.00871485 5.4154e-05 7.57942e-05
-0.00937272 7.84934e-05 3.25038e-05
-0.00976676 8.57911e-05 3.30938e-05
-0.00990071 0.000116429 -1.2605e-05
-0.00979031 0.000127383 -1.24433e-05
-0.00933461 0.000161953 -6.65125e-05
-0.00869465 0.000163343 -5.3615e-05
-0.00765363 0.000195213 -0.000122119
-0.00657053 0.000165641 -7.71614e-05
-0.00508128 0.000186394 -0.000169138
-0.00382048 9.75667e-05 -6.36692e-05
-0.00223178 0.000111985 -0.000196371
-0.00127948 -5.37752e-05 1.763e-05
-0.000171133 5.26297e-05 -0.000179731
0 0 0
0 0 0
-0.000137249 4.32643e-06 0.000167279
-0.00070182 0.000139549 1.76714e-05
-0.00118004 1.81666e-05 0.000167951
-0.00204528 0.000110377 6.4967e-05
-0.00271695 3.62172e-05 0.000144727
-0.00357769 8.86364e-05 7.63266e-05
-0.00423328 3.9236e-05 0.00011617
-0.0049237 6.6965e-05 6.66266e-05
-0.00542421 3.03456e-05 8.40762e-05
-0.00584807 4.55789e-05 4.19648e-05
-0.00610059 1.32291e-05 4.93349e-05
-0.00618961 2.56384e-05 6.17111e-06
-0.0061345 -9.56005e-06 1.42996e-05
-0.00584435 9.3306e-06 -3.75101e-05
-0.00546556 -3.63034e-05 -1.62357e-05
-0.00479696 1.62471e-07 -8.5327e-05
-0.00415126 -6.58969e-05 -3.38772e-05
-0.00319137 2.91796e-06 -0.000132094
-0.00244523 -9.78065e-05 -2.67156e-05
-0.00142192 2.14435e-05 -0.000170619
-0.000859944 -0.000139686 2.51184e-05
-0.0001804 3.44555e-05 -0.00017512
0 0 0
0 0 0
0 0 0
0 0 0
0 0 0
0 0 0
0 0 0
0 0 0
0 0 0
0 0 0
0 0 0
0 0 0
0 0 0
0 0 0
0 0 0
0 0 0
0 0 0
0 0 0
0 0 0
0 0 0
0 0 0
0 0 0
0 0 0
0 0 0
0 0 0
0 0 0
0 0 0
0 0 0
0 0 0
0 0 0
0 0 0
0 0 0
0 0 0
0 0 0
0 0 0
0 0 0
0 0 0
0 0 0
0 0 0
0 0 0
0 0 0
0 0 0
0 0 0
0 0 0
0 0 0
0 0 0
0 0 0
0 0 0
0 0 0
0 0 0
-3.39575e-05 0.000106405 0.000833682
-0.00104151 -3.95817e-05 0.00106181
-0.00188714 0.000114958 0.00144269
-0.00332062 2.3788e-05 0.00145888
-0.00449831 0.000102355 0.00153236
-0.00590444 4.3664e-05 0.0014104
-0.00702765 8.10918e-05 0.00131885
-0.00814975 3.74044e-05 0.00111863
-0.00899184 5.19564e-05 0.000933195
-0.00968063 1.33554e-05 0.000677563
-0.0100978 1.75235e-05 0.000431579
-0.0102465 -2.248e-05 0.000131327
-0.0101446 -1.78259e-05 -0.00014679
-0.00968174 -6.47055e-05 -0.000473413
-0.0090301 -4.71546e-05 -0.000738297
-0.00795229 -0.000106732 -0.00105288
-0.00683398 -5.86629e-05 -0.00122449
-0.0052741 -0.000140295 -0.00145895
-0.00396097 -3.69188e-05 -0.00140839
-0.00227451 -0.000159619 -0.00146815
-0.00128395 3.98851e-05 -0.00102701
-8.02386e-05 -0.000150774 -0.000868151
0 0 0
0 0 0
-5.67302e-05 -6.08702e-05 0.00118858
-0.00170986 -0.000242765 0.00164353
-0.00319439 -6.91537e-05 0.00224339
-0.00550206 -7.36494e-05 0.00233674
-0.00750975 2.30698e-05 0.00243339
-0.00977119 1.02437e-05 0.00226189
-0.0116487 3.6683e-05 0.0020878
-0.0134478 1.44792e-07 0.00176836
-0.0148301 -1.71221e-05 0.00144311
-0.0159261 -7.36397e-05 0.00102547
-0.0165893 -0.000116149 0.000603144
-0.016815 -0.00018704 0.000112536
-0.0166142 -0.000238006 -0.000362197
-0.0158616 -0.000314232 -0.000889112
-0.0147502 -0.000350089 -0.00134426
-0.0130217 -0.000413203 -0.00183479
-0.0111307 -0.000395032 -0.00214035
-0.00864316 -0.000421378 -0.00246654
-0.00640938 -0.000299121 -0.00240963
-0.00372785 -0.000289058 -0.00239542
-0.00201654 -3.56583e-05 -0.00170328
-6.92325e-05 -0.000153786 -0.00129683
0 0 0
0 0 0
-4.40591e-05 -9.79586e-05 0.00144361
-0.00213558 -0.000319723 0.00204494
-0.00405428 -0.000154599 0.00279971
-0.00694024 -0.000171046 0.00293988
-0.00946817 -5.51829e-05 0.00305359
-0.0122681 -6.98382e-05 0.00284005
-0.0145997 -2.87242e-05 0.00260686
-0.016809 -6.77543e-05 0.00219844
-0.0185055 -7.77435e-05 0.00177509
-0.0198366 -0.000139117 0.00124209
-0.0206333 -0.000178934 0.000699254
-0.0208902 -0.000256804 7.71256e-05
-0.0206189 -0.000305912 -0.000528693
-0.0196783 -0.000390054 -0.00119196
-0.018289 -0.00041974 -0.00177103
-0.01616 -0.000489491 -0.00238144
-0.0138116 -0.000455172 -0.0027701
-0.0107562 -0.000485866 -0.00316023
-0.0079704 -0.000337459 -0.00308771
-0.00466714 -0.000334773 -0.00302531
-0.00248927 -6.97319e-05 -0.00215038
-8.18138e-05 -0.000185265 -0.00158064
0 0 0
0 0 0
-5.9865e-05 -0.000209765 0.00152462
-0.00238121 -0.000432115 0.00219724
-0.00454991 -0.000317133 0.00304578
-0.00778455 -0.000317055 0.00322154
-0.0106334 -0.000209337 0.00335004
-0.0137634 -0.000201322 0.00311837
-0.0163759 -0.000157565 0.00285259
-0.0188341 -0.000179299 0.00239597
-0.0207219 -0.000186935 0.0019158
-0.0221929 -0.00023704 0.0013176
-0.0230671 -0.000276913 0.000703945
-0.0233388 -0.0003463 6.41004e-06
-0.0230176 -0.000396996 -0.000676988
-0.0219575 -0.000470136 -0.00141791
-0.0203884 -0.000500699 -0.00206965
-0.0180085 -0.000551178 -0.00274461
-0.0153682 -0.000517086 -0.00317815
-0.0119599 -0.000517641 -0.00359253
-0.00883158 -0.000377855 -0.00349929
-0.00515527 -0.000340633 -0.00338813
-0.00272104 -0.000114959 -0.00239117
-7.84131e-05 -0.000175167 -0.00172114
0 0 0
0 0 0
-5.24024e-05 -0.000218622 0.00158118
-0.00251364 -0.000433812 0.00228049
-0.00481872 -0.000358306 0.00318831
-0.00826616 -0.000370286 0.00337939
-0.0112978 -0.000275762 0.00352054
-0.0146266 -0.00026778 0.00327496
-0.0173979 -0.000220439 0.00299186
-0.0200023 -0.000233887 0.00250449
-0.0219964 -0.000230382 0.00199179
-0.0235468 -0.000267715 0.00135356
-0.0244626 -0.000292707 0.000699061
-0.0247397 -0.000346858 -4.41181e-05
-0.024389 -0.000381016 -0.000771899
-0.023256 -0.000438332 -0.00155987
-0.021585 -0.000453861 -0.00225201
-0.019055 -0.000492531 -0.00296675
-0.0162503 -0.000452681 -0.0034221
-0.0126315 -0.00045309 -0.00385319
-0.00931243 -0.000329847 -0.00373977
-0.00541831 -0.000307128 -0.00360444
-0.00284775 -0.000126051 -0.00252681
-8.1432e-05 -0.000168573 -0.00180984
0 0 0
0 0 0
-6.07409e-05 -0.000249423 0.00157697
-0.00257729 -0.000441638 0.00227988
-0.00494659 -0.000405265 0.00321763
-0.0085044 -0.000417037 0.00341785
-0.0116339 -0.000341806 0.00356886
-0.0150741 -0.000327662 0.00331929
-0.0179351 -0.000282425 0.0030307
-0.0206237 -0.000283923 0.0025308
-0.0226792 -0.000273528 0.00200436
-0.0242761 -0.000295662 0.00134847
-0.0252163 -0.000309503 0.000675393
-0.0254968 -0.000346269 -8.88613e-05
-0.0251285 -0.000367966 -0.000837571
-0.0239521 -0.000406593 -0.00164762
-0.0222201 -0.00041247 -0.00235856
-0.0196004 -0.000434344 -0.00309108
-0.016699 -0.000395847 -0.0035543
-0.0129576 -0.000387089 -0.00398985
-0.00953366 -0.000287598 -0.00386044
-0.00552371 -0.000264402 -0.00370829
-0.00289309 -0.000129984 -0.00258426
-7.95107e-05 -0.000147067 -0.00184557
0 0 0
0 0 0
-5.6434e-05 -0.00021765 0.00157656
-0.00260258 -0.000381229 0.00227305
-0.00499773 -0.000366906 0.00322736
-0.00861545 -0.000383207 0.00342945
-0.0117932 -0.000325916 0.00358777
-0.0152957 -0.000314487 0.00333525
-0.0182033 -0.000274371 0.00304556
-0.0209394 -0.000271527 0.00253894
-0.0230277 -0.000256738 0.00200668
-0.0246508 -0.000268806 0.00134167
-0.0256044 -0.000272539 0.000660038
-0.0258868 -0.00029573 -0.000115147
-0.0255097 -0.000305373 -0.000873656
-0.0243086 -0.00033017 -0.0016954
-0.0225447 -0.000327663 -0.00241472
-0.0198738 -0.000340984 -0.00315709
-0.016922 -0.000306283 -0.00362223
-0.0131121 -0.000300213 -0.00406133
-0.00963636 -0.000224612 -0.00392042
-0.00556622 -0.000212763 -0.00376237
-0.00291133 -0.000116521 -0.00261126
-7.98366e-05 -0.000125096 -0.00186728
0 0 0
0 0 0
-6.0774e-05 -0.000196461 0.00155944
-0.00261031 -0.0003265 0.00224716
-0.00501244 -0.000327622 0.00320802
-0.00865467 -0.000341792 0.00341092
-0.0118534 -0.000300911 0.00357451
-0.0153871 -0.000289762 0.00332231
-0.0183183 -0.000256678 0.00303466
-0.0210804 -0.000249852 0.00252717
-0.0231866 -0.000234058 0.00199478
-0.024825 -0.000237922 0.00132781
-0.0257868 -0.000235715 0.000644523
-0.0260709 -0.000247872 -0.000133725
-0.0256894 -0.000250078 -0.000894766
-0.0244744 -0.000263371 -0.00172026
-0.0226929 -0.000256816 -0.00244157
-0.019993 -0.000262024 -0.00318706
-0.0170143 -0.00023328 -0.00365097
-0.0131677 -0.000226126 -0.00409047
-0.00966768 -0.00017153 -0.00394187
-0.00557054 -0.000162824 -0.0037808
-0.00291045 -9.72924e-05 -0.00261598
-7.91491e-05 -9.75724e-05 -0.00187225
0 0 0
0 0 0
-5.87243e-05 -0.000140473 0.00155138
-0.00260983 -0.000234462 0.00223118
-0.00501125 -0.000239789 0.00319522
-0.00866523 -0.000252076 0.00339722
-0.0118721 -0.000224912 0.0035643
-0.0154221 -0.000217409 0.00331205
-0.0183645 -0.000193339 0.00302635
-0.0211408 -0.000187364 0.00251862
-0.0232564 -0.000174213 0.00198701
-0.0249035 -0.000174943 0.00131937
-0.0258699 -0.000170785 0.000636027
-0.0261551 -0.000177001 -0.000143448
-0.025772 -0.000175779 -0.000905027
-0.0245494 -0.000182924 -0.00173222
-0.0227593 -0.000176009 -0.00245375
-0.0200437 -0.000178477 -0.00320089
-0.0170521 -0.000157652 -0.00366326
-0.0131863 -0.000153536 -0.00410355
-0.00967629 -0.000117545 -0.00395015
-0.00556693 -0.000114077 -0.00378911
-0.00290754 -7.2119e-05 -0.00261693
-7.90943e-05 -7.09505e-05 -0.001876
0 0 0
0 0 0
-6.06058e-05 -9.35626e-05 0.00154127
-0.00260796 -0.000150539 0.00221554
-0.00500693 -0.00015668 0.00318029
-0.00866365 -0.000164107 0.00338185
-0.0118727 -0.000148707 0.00355112
-0.0154297 -0.000143489 0.00329956
-0.018377 -0.000128529 0.00301582
-0.0211604 -0.000123615 0.00250897
-0.0232807 -0.000114503 0.00197889
-0.0249326 -0.000113326 0.00131202
-0.0259016 -0.000109346 0.00062977
-0.0261878 -0.000111356 -0.000149275
-0.025804 -0.000109103 -0.00091009
-0.0245775 -0.000111682 -0.00173722
-0.0227833 -0.000106258 -0.00245795
-0.0200595 -0.000106305 -0.00320518
-0.0170618 -9.33112e-05 -0.00366605
-0.0131867 -9.00889e-05 -0.00410634
-0.00967322 -6.93894e-05 -0.00395017
-0.00555976 -6.71677e-05 -0.00378933
-0.00290303 -4.39355e-05 -0.00261392
-7.89612e-05 -4.18872e-05 -0.00187539
0 0 0
0 0 0