# vtk DataFile Version 3.0
CFD lid driven cavity 3D
ASCII
DATASET STRUCTURED_POINTS
DIMENSIONS 25 25 25
ORIGIN 0 0 0
SPACING 0.0416667 0.0416667 0.0416667
CELL_DATA 13824
VECTORS velocity double
0 0 0
0 0 0
0 0 0
0 0 0
0 0 0
0 0 0
0 0 0
0 0 0
0 0 0
0 0 0
0 0 0
0 0 0
0 0 0
0 0 0
0 0 0
0 0 0
0 0 0
0 0 0
0 0 0
0 0 0
0 0 0
0 0 0
0 0 0
0 0 0
0 0 0
0 0 0
0 0 0
0 0 0
0 0 0
0 0 0
0 0 0
0 0 0
0 0 0
0 0 0
0 0 0
0 0 0
0 0 0
0 0 0
0 0 0
0 0 0
0 0 0
0 0 0
0 0 0
0 0 0
0 0 0
0 0 0
0 0 0
0 0 0
0 0 0
0 0 0
0 0 0
0 0 0
0 0 0
0 0 0
0 0 0
0 0 0
0 0 0
0 0 0
0 0 0
0 0 0
0 0 0
0 0 0
0 0 0
0 0 0
0 0 0
0 0 0
0 0 0
0 0 0
0 0 0
0 0 0
0 0 0
0 0 0
0 0 0
0 0 0
0 0 0
0 0 0
0 0 0
0 0 0
0 0 0
0 0 0
0 0 0
0 0 0
0 0 0
0 0 0
0 0 0
0 0 0
0 0 0
0 0 0
0 0 0
0 0 0
0 0 0
0 0 0
0 0 0
0 0 0
0 0 0
0 0 0
0 0 0
0 0 0
0 0 0
0 0 0
0 0 0
0 0 0
0 0 0
0 0 0
0 0 0
0 0 0
0 0 0
0 0 0
0 0 0
0 0 0
0 0 0
0 0 0
0 0 0
0 0 0
0 0 0
0 0 0
0 0 0
0 0 0
0 0 0
0 0 0
0 0 0
0 0 0
0 0 0
0 0 0
0 0 0
0 0 0
0 0 0
0 0 0
0 0 0
0 0 0
0 0 0
0 0 0
0 0 0
0 0 0
0 0 0
0 0 0
0 0 0
0 0 0
0 0 0
0 0 0
0 0 0
0 0 0
0 0 0
0 0 0
0 0 0
0 0 0
0 0 0
0 0 0
0 0 0
0 0 0
0 0 0
0 0 0
0 0 0
0 0 0
0 0 0
0 0 0
0 0 0
0 0 0
0 0 0
0 0 0
0 0 0
0 0 0
0 0 0
0 0 0
0 0 0
0 0 0
0 0 0
0 0 0
0 0 0
0 0 0
0 0 0
0 0 0
0 0 0
0 0 0
0 0 0
0 0 0
0 0 0
0 0 0
0 0 0
0 0 0
0 0 0
0 0 0
0 0 0
0 0 0
0 0 0
0 0 0
0 0 0
0 0 0
0 0 0
0 0 0
0 0 0
0 0 0
0 0 0
0 0 0
0 0 0
0 0 0
0 0 0
0 0 0
0 0 0
0 0 0
0 0 0
0 0 0
0 0 0
0 0 0
0 0 0
0 0 0
0 0 0
0 0 0
0 0 0
0 0 0
0 0 0
0 0 0
0 0 0
0 0 0
0 0 0
0 0 0
0 0 0
0 0 0
0 0 0
0 0 0
0 0 0
0 0 0
0 0 0
0 0 0
0 0 0
0 0 0
0 0 0
0 0 0
0 0 0
0 0 0
0 0 0
0 0 0
0 0 0
0 0 0
0 0 0
0 0 0
0 0 0
0 0 0
0 0 0
0 0 0
0 0 0
0 0 0
0 0 0
0 0 0
0 0 0
0 0 0
0 0 0
0 0 0
0 0 0
0 0 0
0 0 0
0 0 0
0 0 0
0 0 0
0 0 0
0 0 0
0 0 0
0 0 0
0 0 0
0 0 0
0 0 0
0 0 0
0 0 0
0 0 0
0 0 0
0 0 0
0 0 0
0 0 0
0 0 0
0 0 0
0 0 0
0 0 0
0 0 0
0 0 0
0 0 0
0 0 0
0 0 0
0 0 0
0 0 0
0 0 0
0 0 0
0 0 0
0 0 0
0 0 0
0 0 0
0 0 0
0 0 0
0 0 0
0 0 0
0 0 0
0 0 0
0 0 0
0 0 0
0 0 0
0 0 0
0 0 0
0 0 0
0 0 0
0 0 0
0 0 0
0 0 0
0 0 0
0 0 0
0 0 0
0 0 0
0 0 0
0 0 0
0 0 0
0 0 0
0 0 0
0 0 0
0 0 0
0 0 0
0 0 0
0 0 0
0 0 0
0 0 0
0 0 0
0 0 0
0 0 0
0 0 0
0 0 0
0 0 0
0 0 0
0 0 0
0 0 0
0 0 0
0 0 0
0 0 0
0 0 0
0 0 0
0 0 0
0 0 0
0 0 0
0 0 0
0 0 0
0 0 0
0 0 0
0 0 0
0 0 0
0 0 0
0 0 0
0 0 0
0 0 0
0 0 0
0 0 0
0 0 0
0 0 0
0 0 0
0 0 0
0 0 0
0 0 0
0 0 0
0 0 0
0 0 0
0 0 0
0 0 0
0 0 0
0 0 0
0 0 0
0 0 0
0 0 0
0 0 0
0 0 0
0 0 0
0 0 0
0 0 0
0 0 0
0 0 0
0 0 0
0 0 0
0 0 0
0 0 0
0 0 0
0 0 0
0 0 0
0 0 0
0 0 0
0 0 0
0 0 0
0 0 0
0 0 0
0 0 0
0 0 0
0 0 0
0 0 0
0 0 0
0 0 0
0 0 0
0 0 0
0 0 0
0 0 0
0 0 0
0 0 0
0 0 0
0 0 0
0 0 0
0 0 0
0 0 0
0 0 0
0 0 0
0 0 0
0 0 0
0 0 0
0 0 0
0 0 0
0 0 0
0 0 0
0 0 0
0 0 0
0 0 0
0 0 0
0 0 0
0 0 0
0 0 0
0 0 0
0 0 0
0 0 0
0 0 0
0 0 0
0 0 0
0 0 0
0 0 0
0 0 0
0 0 0
0 0 0
0 0 0
0 0 0
0 0 0
0 0 0
0 0 0
0 0 0
0 0 0
0 0 0
0 0 0
0 0 0
0 0 0
0 0 0
0 0 0
0 0 0
0 0 0
0 0 0
0 0 0
0 0 0
0 0 0
0 0 0
0 0 0
0 0 0
0 0 0
0 0 0
0 0 0
0 0 0
0 0 0
0 0 0
0 0 0
0 0 0
0 0 0
0 0 0
0 0 0
0 0 0
0 0 0
0 0 0
0 0 0
0 0 0
0 0 0
0 0 0
0 0 0
0 0 0
0 0 0
0 0 0
0 0 0
0 0 0
0 0 0
0 0 0
0 0 0
0 0 0
0 0 0
0 0 0
0 0 0
0 0 0
0 0 0
0 0 0
0 0 0
0 0 0
0 0 0
0 0 0
0 0 0
0 0 0
0 0 0
0 0 0
0 0 0
0 0 0
0 0 0
0 0 0
0 0 0
0 0 0
0 0 0
0 0 0
0 0 0
0 0 0
0 0 0
0 0 0
0 0 0
0 0 0
0 0 0
0 0 0
0 0 0
0 0 0
0 0 0
0 0 0
0 0 0
0 0 0
0 0 0
0 0 0
0 0 0
0 0 0
0 0 0
0 0 0
0 0 0
0 0 0
0 0 0
0 0 0
0 0 0
0 0 0
0 0 0
0 0 0
0 0 0
0 0 0
0 0 0
0 0 0
0 0 0
0 0 0
0 0 0
0 0 0
0 0 0
0 0 0
0 0 0
0 0 0
0 0 0
0 0 0
0 0 0
0 0 0
0 0 0
0 0 0
0 0 0
0 0 0
0 0 0
0 0 0
0 0 0
0 0 0
0 0 0
0 0 0
0 0 0
0 0 0
0 0 0
0 0 0
0 0 0
0 0 0
0 0 0
0 0 0
0 0 0
0 0 0
0 0 0
0 0 0
0 0 0
0 0 0
0 0 0
0 0 0
0 0 0
0 0 0
0 0 0
0 0 0
0 0 0
0 0 0
0 0 0
0 0 0
0 0 0
0 0 0
0 0 0
0 0 0
0 0 0
0 0 0
0 0 0
0 0 0
0 0 0
0 0 0
0 0 0
0 0 0
0 0 0
0 0 0
0 0 0
0 0 0
0 0 0
0 0 0
0 0 0
0 0 0
0 0 0
0 0 0
0 0 0
0 0 0
0 0 0
-0.000190381 9.92438e-06 0.000197189
-0.00106771 -0.000123635 4.2733e-05
-0.00163424 -8.1395e-06 0.000172847
-0.00252125 -8.6648e-05 7.57499e-05
-0.00311722 -2.30176e-05 0.000135516
-0.00384158 -6.2507e-05 7.47421e-05
-0.00434474 -2.31332e-05 9.84932e-05
-0.00485732 -4.12118e-05 5.52135e-05
-0.00519434 -1.39119e-05 5.98613e-05
-0.00546597 -2.1515e-05 2.41477e-05
-0.0055933 9.25956e-07 2.04192e-05
-0.00560677 -3.61363e-06 -1.35963e-05
-0.00550722 1.9114e-05 -1.74605e-05
-0.00525772 1.12028e-05 -5.45451e-05
-0.0049402 3.9439e-05 -5.00612e-05
-0.00443664 2.05062e-05 -9.61172e-05
-0.00393919 6.17245e-05 -7.17887e-05
-0.00320627 2.03311e-05 -0.000136895
-0.0026019 8.72283e-05 -7.45404e-05
-0.00169019 4.98293e-06 -0.000177931
-0.00110752 0.000126295 -4.12658e-05
-0.000199544 -1.35578e-05 -0.000204405
0 0 0
0 0 0
-0.000185188 -3.61361e-06 0.000187954
-0.00140578 -8.23759e-05 3.2366e-05
-0.00220172 -1.31361e-05 0.000163023
-0.00338427 -3.89117e-05 7.07319e-05
-0.00421492 -5.26896e-06 0.000127241
-0.00517307 -1.98196e-05 7.11483e-05
-0.0058651 -2.59727e-06 9.25863e-05
-0.00654215 -1.10866e-05 5.26418e-05
-0.00700111 -1.24615e-06 5.60054e-05
-0.00735916 -6.75953e-06 2.27687e-05
-0.00753032 6.84319e-08 1.82867e-05
-0.00754657 -4.73258e-06 -1.35017e-05
-0.00740855 1.98833e-06 -1.81506e-05
-0.00707726 -4.06042e-06 -5.27021e-05
-0.00664139 5.56613e-06 -4.96037e-05
-0.00597543 -3.91392e-06 -9.21744e-05
-0.00528969 1.3331e-05 -7.03379e-05
-0.00432152 -2.52698e-06 -0.000130454
-0.00347986 3.19807e-05 -7.1581e-05
-0.00226756 4.73781e-06 -0.000169682
-0.00145154 7.67033e-05 -3.24489e-05
-0.000192253 -3.58323e-06 -0.000196395
0 0 0
0 0 0
-0.000195055 -5.62582e-07 0.000204155
-0.00150657 -7.61921e-05 2.95505e-05
-0.00236449 -1.46994e-05 0.000175216
-0.00364103 -5.18699e-05 6.89073e-05
-0.00452568 -1.30192e-05 0.000134307
-0.00555662 -3.39712e-05 6.99378e-05
-0.00629208 -1.05205e-05 9.66297e-05
-0.00701889 -2.15472e-05 5.18056e-05
-0.00750642 -6.16414e-06 5.84025e-05
-0.0078899 -1.21093e-05 2.20265e-05
-0.00807129 -1.60084e-07 1.99344e-05
-0.00808778 -4.71293e-06 -1.44664e-05
-0.00794035 7.24002e-06 -1.6644e-05
-0.00758399 8.16667e-07 -5.43802e-05
-0.00712026 1.63064e-05 -4.78011e-05
-0.0064045 4.31092e-06 -9.54147e-05
-0.00567588 2.82621e-05 -6.78951e-05
-0.00463437 5.80964e-06 -0.000136704
-0.00373901 4.60035e-05 -6.83152e-05
-0.00243173 6.74644e-06 -0.00018124
-0.00155364 7.09195e-05 -2.81969e-05
-0.000203364 -6.58638e-06 -0.000212183
0 0 0
0 0 0
-0.000196542 -7.89853e-06 0.000201565
-0.00152572 -5.22163e-05 2.40822e-05
-0.00239285 -1.65004e-05 0.000172408
-0.00369507 -3.56379e-05 6.55085e-05
-0.00459315 -1.09057e-05 0.000132131
-0.00564399 -2.16817e-05 6.79935e-05
-0.00639125 -6.75994e-06 9.52577e-05
-0.00713132 -1.30621e-05 5.07088e-05
-0.00762668 -3.76362e-06 5.76113e-05
-0.00801685 -7.88549e-06 2.14198e-05
-0.00820106 -1.12412e-06 1.95305e-05
-0.00821767 -4.74715e-06 -1.47381e-05
-0.00806773 1.9266e-06 -1.67262e-05
-0.00770484 -2.65534e-06 -5.4314e-05
-0.00723349 6.47357e-06 -4.74596e-05
-0.00650445 -6.73944e-07 -9.48522e-05
-0.00576405 1.42664e-05 -6.67779e-05
-0.00470232 2.37977e-06 -0.000135401
-0.00379342 2.76992e-05 -6.57391e-05
-0.00245988 7.30161e-06 -0.00017929
-0.00157264 4.45902e-05 -2.33795e-05
-0.000204302 -1.18547e-07 -0.000210353
0 0 0
0 0 0
-0.00020067 -6.02693e-06 0.000208813
-0.00153168 -4.15654e-05 2.38571e-05
-0.00239652 -1.46416e-05 0.000178595
-0.00370752 -3.35894e-05 6.58979e-05
-0.00460337 -1.23472e-05 0.000136547
-0.00566161 -2.3344e-05 6.853e-05
-0.00640748 -9.07854e-06 9.81673e-05
-0.0071523 -1.51368e-05 5.10905e-05
-0.00764706 -5.36414e-06 5.94004e-05
-0.0080395 -8.86011e-06 2.14277e-05
-0.00822362 -1.20739e-06 2.05242e-05
-0.00824022 -4.03976e-06 -1.53008e-05
-0.00809055 3.57423e-06 -1.62743e-05
-0.00772535 -2.92672e-07 -5.5686e-05
-0.00725478 9.43398e-06 -4.73342e-05
-0.00652088 2.66353e-06 -9.73657e-05
-0.00578208 1.70711e-05 -6.67545e-05
-0.00471274 5.06307e-06 -0.000139479
-0.00380627 2.68818e-05 -6.55411e-05
-0.00246378 6.68319e-06 -0.000185244
-0.00157892 3.48595e-05 -2.26097e-05
-0.000209056 -1.02558e-06 -0.000217458
0 0 0
0 0 0
-0.000202656 -9.03906e-06 0.000208509
-0.00153146 -3.14906e-05 2.15662e-05
-0.00239324 -1.48359e-05 0.000178347
-0.0037067 -2.61361e-05 6.43565e-05
-0.00460087 -1.17476e-05 0.000136416
-0.00566208 -1.82299e-05 6.76395e-05
-0.00640731 -8.12252e-06 9.81552e-05
-0.00715425 -1.18046e-05 5.05865e-05
-0.00764887 -4.80138e-06 5.94352e-05
-0.0080424 -7.10307e-06 2.10781e-05
-0.00822656 -1.66745e-06 2.05521e-05
-0.00824321 -3.6635e-06 -1.56388e-05
-0.00809368 1.71231e-06 -1.62342e-05
-0.00772744 -9.10603e-07 -5.60613e-05
-0.00725715 5.97489e-06 -4.71617e-05
-0.00652107 1.7023e-06 -9.7743e-05
-0.00578297 1.1801e-05 -6.62166e-05
-0.00471048 4.54039e-06 -0.000139779
-0.0038057 1.92337e-05 -6.43385e-05
-0.00246048 7.06104e-06 -0.00018544
-0.00157874 2.4579e-05 -2.05816e-05
-0.000210873 2.23031e-06 -0.000217574
0 0 0
0 0 0
-0.000204127 -7.01788e-06 0.000211571
-0.00153207 -2.39302e-05 2.15916e-05
-0.00239163 -1.19527e-05 0.000181112
-0.00370661 -2.12887e-05 6.46416e-05
-0.00459848 -1.02874e-05 0.000138538
-0.00566159 -1.58363e-05 6.79611e-05
-0.00640515 -7.59744e-06 9.96228e-05
-0.00715347 -1.06676e-05 5.08e-05
-0.00764716 -4.60688e-06 6.036e-05
-0.00804137 -6.37317e-06 2.10755e-05
-0.00822529 -1.4558e-06 2.10625e-05
-0.00824196 -2.90372e-06 -1.59556e-05
-0.0080928 1.97468e-06 -1.60247e-05
-0.00772589 -4.28823e-08 -5.6804e-05
-0.00725665 5.94512e-06 -4.71512e-05
-0.00651915 2.4028e-06 -9.90464e-05
-0.00578282 1.06522e-05 -6.62975e-05
-0.00470834 4.45927e-06 -0.000141771
-0.00380594 1.569e-05 -6.43776e-05
-0.00245909 5.6125e-06 -0.000188121
-0.00157957 1.82169e-05 -2.03822e-05
-0.000212629 1.43543e-06 -0.000220594
0 0 0
0 0 0
-0.000205298 -7.32293e-06 0.000211566
-0.00153178 -1.82172e-05 2.04885e-05
-0.00238993 -1.07164e-05 0.000181145
-0.00370522 -1.64012e-05 6.38056e-05
-0.00459584 -8.99946e-06 0.000138595
-0.00565991 -1.23161e-05 6.74111e-05
-0.00640274 -6.52474e-06 9.96995e-05
-0.00715192 -8.3374e-06 5.04539e-05
-0.00764528 -3.97343e-06 6.04407e-05
-0.00803998 -5.02436e-06 2.08301e-05
-0.00822384 -1.45702e-06 2.11421e-05
-0.00824054 -2.34464e-06 -1.61782e-05
-0.00809155 1.18375e-06 -1.5919e-05
-0.00772418 -6.47742e-08 -5.70433e-05
-0.00725536 4.21759e-06 -4.695e-05
-0.00651698 2.04208e-06 -9.93056e-05
-0.00578143 7.80158e-06 -6.58962e-05
-0.00470589 4.00916e-06 -0.000142033
-0.00380475 1.15369e-05 -6.36799e-05
-0.00245746 5.33348e-06 -0.00018837
-0.00157936 1.32824e-05 -1.9384e-05
-0.000213751 2.6136e-06 -0.000220802
0 0 0
0 0 0
-0.000205812 -4.82525e-06 0.000212815
-0.00153188 -1.22403e-05 2.05003e-05
-0.00238916 -7.27882e-06 0.000182305
-0.00370482 -1.13303e-05 6.39257e-05
-0.00459444 -6.33266e-06 0.000139526
-0.00565918 -8.7748e-06 6.75447e-05
-0.00640125 -4.73634e-06 0.000100368
-0.007151 -6.06929e-06 5.05377e-05
-0.00764394 -2.92238e-06 6.08734e-05
-0.00803895 -3.66082e-06 2.08136e-05
-0.0082227 -1.02357e-06 2.13863e-05
-0.00823941 -1.62342e-06 -1.63414e-05
-0.00809062 9.88359e-07 -1.58154e-05
-0.00772295 1.12104e-07 -5.74022e-05
-0.00725462 3.20531e-06 -4.69408e-05
-0.00651566 1.61593e-06 -9.99112e-05
-0.00578092 5.63157e-06 -6.5932e-05
-0.00470466 2.84679e-06 -0.000142919
-0.00380455 7.92015e-06 -6.37019e-05
-0.00245684 3.49121e-06 -0.000189508
-0.0015796 8.73906e-06 -1.93064e-05
-0.00021439 1.50217e-06 -0.000222047
0 0 0
0 0 0
-0.00020632 -3.64792e-06 0.00021283
-0.00153177 -7.63087e-06 2.00437e-05
-0.00238855 -5.03666e-06 0.000182336
-0.0037042 -7.07832e-06 6.35563e-05
-0.00459329 -4.30448e-06 0.000139562
-0.00565832 -5.49086e-06 6.7283e-05
-0.00640004 -3.17723e-06 0.000100408
-0.00715012 -3.79432e-06 5.03635e-05
-0.00764288 -1.95992e-06 6.0917e-05
-0.0080381 -2.28471e-06 2.06904e-05
-0.00822181 -7.38361e-07 2.14359e-05
-0.00823854 -1.00296e-06 -1.64457e-05
-0.00808983 5.25822e-07 -1.57448e-05
-0.00772198 1.17485e-07 -5.7507e-05
-0.00725387 1.9135e-06 -4.68202e-05
-0.00651456 1.14355e-06 -0.000100023
-0.0057802 3.43512e-06 -6.57242e-05
-0.0047036 2.05002e-06 -0.000143036
-0.00380404 4.86165e-06 -6.33819e-05
-0.00245628 2.60839e-06 -0.000189625
-0.00157954 5.37638e-06 -1.88866e-05
-0.000214887 1.52754e-06 -0.00022215
0 0 0
0 0 0
-0.000206447 -8.24371e-07 0.000213169
-0.00153178 -2.21005e-06 2.00455e-05
-0.00238833 -1.29869e-06 0.000182656
-0.00370404 -2.07716e-06 6.35882e-05
-0.00459285 -1.15538e-06 0.000139825
-0.00565805 -1.64345e-06 6.73186e-05
-0.00639956 -8.83064e-07 0.000100601
-0.00714979 -1.15801e-06 5.03849e-05
-0.00764243 -5.51719e-07 6.10439e-05
-0.00803773 -7.06737e-07 2.06826e-05
-0.00822142 -1.90259e-07 2.15086e-05
-0.00823815 -3.16034e-07 -1.64962e-05
-0.0080895 1.95396e-07 -1.57131e-05
-0.00772157 1.31801e-08 -5.76143e-05
-0.0072536 6.084e-07 -4.68163e-05
-0.00651414 2.82428e-07 -0.0001002
-0.00578001 1.03632e-06 -6.57336e-05
-0.00470323 4.79435e-07 -0.000143289
-0.00380395 1.41122e-06 -6.33878e-05
-0.00245611 5.57203e-07 -0.000189942
-0.00157959 1.51685e-06 -1.88647e-05
-0.00021505 1.72223e-07 -0.000222491
0 0 0
0 0 0
-0.000206447 8.24371e-07 0.000213169
-0.00153178 2.21005e-06 2.00455e-05
-0.00238833 1.29869e-06 0.000182656
-0.00370404 2.07716e-06 6.35882e-05
-0.00459285 1.15538e-06 0.000139825
-0.00565805 1.64345e-06 6.73186e-05
-0.00639956 8.83064e-07 0.000100601
-0.00714979 1.15801e-06 5.03849e-05
-0.00764243 5.51719e-07 6.10439e-05
-0.00803773 7.06737e-07 2.06826e-05
-0.00822142 1.90259e-07 2.15086e-05
-0.00823815 3.16034e-07 -1.64962e-05
-0.0080895 -1.95396e-07 -1.57131e-05
-0.00772157 -1.31801e-08 -5.76143e-05
-0.0072536 -6.084e-07 -4.68163e-05
-0.00651414 -2.82428e-07 -0.0001002
-0.00578001 -1.03632e-06 -6.57336e-05
-0.00470323 -4.79435e-07 -0.000143289
-0.00380395 -1.41122e-06 -6.33878e-05
-0.00245611 -5.57203e-07 -0.000189942
-0.00157959 -1.51685e-06 -1.88647e-05
-0.00021505 -1.72223e-07 -0.000222491
0 0 0
0 0 0
-0.00020632 3.64792e-06 0.00021283
-0.00153177 7.63087e-06 2.00437e-05
-0.00238855 5.03666e-06 0.000182336
-0.0037042 7.07832e-06 6.35563e-05
-0.00459329 4.30448e-06 0.000139562
-0.00565832 5.49086e-06 6.7283e-05
-0.00640004 3.17723e-06 0.000100408
-0.00715012 3.79432e-06 5.03635e-05
-0.00764288 1.95992e-06 6.0917e-05
-0.0080381 2.28471e-06 2.06904e-05
-0.00822181 7.38361e-07 2.14359e-05
-0.00823854 1.00296e-06 -1.64457e-05
-0.00808983 -5.25822e-07 -1.57448e-05
-0.00772198 -1.17485e-07 -5.7507e-05
-0.00725387 -1.9135e-06 -4.68202e-05
-0.00651456 -1.14355e-06 -0.000100023
-0.0057802 -3.43512e-06 -6.57242e-05
-0.0047036 -2.05002e-06 -0.000143036
-0.00380404 -4.86165e-06 -6.33819e-05
-0.00245628 -2.60839e-06 -0.000189625
-0.00157954 -5.37638e-06 -1.88866e-05
-0.000214887 -1.52754e-06 -0.00022215
0 0 0
0 0 0
-0.000205812 4.82525e-06 0.000212815
-0.00153188 1.22403e-05 2.05003e-05
-0.00238916 7.27882e-06 0.000182305
-0.00370482 1.13303e-05 6.39257e-05
-0.00459444 6.33266e-06 0.000139526
-0.00565918 8.7748e-06 6.75447e-05
-0.00640125 4.73634e-06 0.000100368
-0.007151 6.06929e-06 5.05377e-05
-0.00764394 2.92238e-06 6.08734e-05
-0.00803895 3.66082e-06 2.08136e-05
-0.0082227 1.02357e-06 2.13863e-05
-0.00823941 1.62342e-06 -1.63414e-05
-0.00809062 -9.88359e-07 -1.58154e-05
-0.00772295 -1.12104e-07 -5.74022e-05
-0.00725462 -3.20531e-06 -4.69408e-05
-0.00651566 -1.61593e-06 -9.99112e-05
-0.00578092 -5.63157e-06 -6.5932e-05
-0.00470466 -2.84679e-06 -0.000142919
-0.00380455 -7.92015e-06 -6.37019e-05
-0.00245684 -3.49121e-06 -0.000189508
-0.0015796 -8.73906e-06 -1.93064e-05
-0.00021439 -1.50217e-06 -0.000222047
0 0 0
0 0 0
-0.000205298 7.32293e-06 0.000211566
-0.00153178 1.82172e-05 2.04885e-05
-0.00238993 1.07164e-05 0.000181145
-0.00370522 1.64012e-05 6.38056e-05
-0.00459584 8.99946e-06 0.000138595
-0.00565991 1.23161e-05 6.74111e-05
-0.00640274 6.52474e-06 9.96995e-05
-0.00715192 8.3374e-06 5.04539e-05
-0.00764528 3.97343e-06 6.04407e-05
-0.00803998 5.02436e-06 2.08301e-05
-0.00822384 1.45702e-06 2.11421e-05
-0.00824054 2.34464e-06 -1.61782e-05
-0.00809155 -1.18375e-06 -1.5919e-05
-0.00772418 6.47742e-08 -5.70433e-05
-0.00725536 -4.21759e-06 -4.695e-05
-0.00651698 -2.04208e-06 -9.93056e-05
-0.00578143 -7.80158e-06 -6.58962e-05
-0.00470589 -4.00916e-06 -0.000142033
-0.00380475 -1.15369e-05 -6.36799e-05
-0.00245746 -5.33348e-06 -0.00018837
-0.00157936 -1.32824e-05 -1.9384e-05
-0.000213751 -2.6136e-06 -0.000220802
0 0 0
0 0 0
-0.000204127 7.01788e-06 0.000211571
-0.00153207 2.39302e-05 2.15916e-05
-0.00239163 1.19527e-05 0.000181112
-0.00370661 2.12887e-05 6.46416e-05
-0.00459848 1.02874e-05 0.000138538
-0.00566159 1.58363e-05 6.79611e-05
-0.00640515 7.59744e-06 9.96228e-05
-0.00715347 1.06676e-05 5.08e-05
-0.00764716 4.60688e-06 6.036e-05
-0.00804137 6.37317e-06 2.10755e-05
-0.00822529 1.4558e-06 2.10625e-05
-0.00824196 2.90372e-06 -1.59556e-05
-0.0080928 -1.97468e-06 -1.60247e-05
-0.00772589 4.28823e-08 -5.6804e-05
-0.00725665 -5.94512e-06 -4.71512e-05
-0.00651915 -2.4028e-06 -9.90464e-05
-0.00578282 -1.06522e-05 -6.62975e-05
-0.00470834 -4.45927e-06 -0.000141771
-0.00380594 -1.569e-05 -6.43776e-05
-0.00245909 -5.6125e-06 -0.000188121
-0.00157957 -1.82169e-05 -2.03822e-05
-0.000212629 -1.43543e-06 -0.000220594
0 0 0
0 0 0
-0.000202656 9.03906e-06 0.000208509
-0.00153146 3.14906e-05 2.15662e-05
-0.00239324 1.48359e-05 0.000178347
-0.0037067 2.61361e-05 6.43565e-05
-0.00460087 1.17476e-05 0.000136416
-0.00566208 1.82299e-05 6.76395e-05
-0.00640731 8.12252e-06 9.81552e-05
-0.00715425 1.18046e-05 5.05865e-05
-0.00764887 4.80138e-06 5.94352e-05
-0.0080424 7.10307e-06 2.10781e-05
-0.00822656 1.66745e-06 2.05521e-05
-0.00824321 3.6635e-06 -1.56388e-05
-0.00809368 -1.71231e-06 -1.62342e-05
-0.00772744 9.10603e-07 -5.60613e-05
-0.00725715 -5.97489e-06 -4.71617e-05
-0.00652107 -1.7023e-06 -9.7743e-05
-0.00578297 -1.1801e-05 -6.62166e-05
-0.00471048 -4.54039e-06 -0.000139779
-0.0038057 -1.92337e-05 -6.43385e-05
-0.00246048 -7.06104e-06 -0.00018544
-0.00157874 -2.4579e-05 -2.05816e-05
-0.000210873 -2.23031e-06 -0.000217574
0 0 0
0 0 0
-0.00020067 6.02693e-06 0.000208813
-0.00153168 4.15654e-05 2.38571e-05
-0.00239652 1.46416e-05 0.000178595
-0.00370752 3.35894e-05 6.58979e-05
-0.00460337 1.23472e-05 0.000136547
-0.00566161 2.3344e-05 6.853e-05
-0.00640748 9.07854e-06 9.81673e-05
-0.0071523 1.51368e-05 5.10905e-05
-0.00764706 5.36414e-06 5.94004e-05
-0.0080395 8.86011e-06 2.14277e-05
-0.00822362 1.20739e-06 2.05242e-05
-0.00824022 4.03976e-06 -1.53008e-05
-0.00809055 -3.57423e-06 -1.62743e-05
-0.00772535 2.92672e-07 -5.5686e-05
-0.00725478 -9.43398e-06 -4.73342e-05
-0.00652088 -2.66353e-06 -9.73657e-05
-0.00578208 -1.70711e-05 -6.67545e-05
-0.00471274 -5.06307e-06 -0.000139479
-0.00380627 -2.68818e-05 -6.55411e-05
-0.00246378 -6.68319e-06 -0.000185244
-0.00157892 -3.48595e-05 -2.26097e-05
-0.000209056 1.02558e-06 -0.000217458
0 0 0
0 0 0
-0.000196542 7.89853e-06 0.000201565
-0.00152572 5.22163e-05 2.40822e-05
-0.00239285 1.65004e-05 0.000172408
-0.00369507 3.56379e-05 6.55085e-05
-0.00459315 1.09057e-05 0.000132131
-0.00564399 2.16817e-05 6.79935e-05
-0.00639125 6.75994e-06 9.52577e-05
-0.00713132 1.30621e-05 5.07088e-05
-0.00762668 3.76362e-06 5.76113e-05
-0.00801685 7.88549e-06 2.14198e-05
-0.00820106 1.12412e-06 1.95305e-05
-0.00821767 4.74715e-06 -1.47381e-05
-0.00806773 -1.9266e-06 -1.67262e-05
-0.00770484 2.65534e-06 -5.4314e-05
-0.00723349 -6.47357e-06 -4.74596e-05
-0.00650445 6.73944e-07 -9.48522e-05
-0.00576405 -1.42664e-05 -6.67779e-05
-0.00470232 -2.37977e-06 -0.000135401
-0.00379342 -2.76992e-05 -6.57391e-05
-0.00245988 -7.30161e-06 -0.00017929
-0.00157264 -4.45902e-05 -2.33795e-05
-0.000204302 1.18547e-07 -0.000210353
0 0 0
0 0 0
-0.000195055 5.62582e-07 0.000204155
-0.00150657 7.61921e-05 2.95505e-05
-0.00236449 1.46994e-05 0.000175216
-0.00364103 5.18699e-05 6.89073e-05
-0.00452568 1.30192e-05 0.000134307
-0.00555662 3.39712e-05 6.99378e-05
-0.00629208 1.05205e-05 9.66297e-05
-0.00701889 2.15472e-05 5.18056e-05
-0.00750642 6.16414e-06 5.84025e-05
-0.0078899 1.21093e-05 2.20265e-05
-0.00807129 1.60084e-07 1.99344e-05
-0.00808778 4.71293e-06 -1.44664e-05
-0.00794035 -7.24002e-06 -1.6644e-05
-0.00758399 -8.16667e-07 -5.43802e-05
-0.00712026 -1.63064e-05 -4.78011e-05
-0.0064045 -4.31092e-06 -9.54147e-05
-0.00567588 -2.82621e-05 -6.78951e-05
-0.00463437 -5.80964e-06 -0.000136704
-0.00373901 -4.60035e-05 -6.83152e-05
-0.00243173 -6.74644e-06 -0.00018124
-0.00155364 -7.09195e-05 -2.81969e-05
-0.000203364 6.58638e-06 -0.000212183
0 0 0
0 0 0
-0.000185188 3.61361e-06 0.000187954
-0.00140578 8.23759e-05 3.2366e-05
-0.00220172 1.31361e-05 0.000163023
-0.00338427 3.89117e-05 7.07319e-05
-0.00421492 5.26896e-06 0.000127241
-0.00517307 1.98196e-05 7.11483e-05
-0.0058651 2.59727e-06 9.25863e-05
-0.00654215 1.10866e-05 5.26418e-05
-0.00700111 1.24615e-06 5.60054e-05
-0.00735916 6.75953e-06 2.27687e-05
-0.00753032 -6.84319e-08 1.82867e-05
-0.00754657 4.73258e-06 -1.35017e-05
-0.00740855 -1.98833e-06 -1.81506e-05
-0.00707726 4.06042e-06 -5.27021e-05
-0.00664139 -5.56613e-06 -4.96037e-05
-0.00597543 3.91392e-06 -9.21744e-05
-0.00528969 -1.3331e-05 -7.03379e-05
-0.00432152 2.52698e-06 -0.000130454
-0.00347986 -3.19807e-05 -7.1581e-05
-0.00226756 -4.73781e-06 -0.000169682
-0.00145154 -7.67033e-05 -3.24489e-05
-0.000192253 3.58323e-06 -0.000196395
0 0 0
0 0 0
-0.000190381 -9.92438e-06 0.000197189
-0.00106771 0.000123635 4.2733e-05
-0.00163424 8.1395e-06 0.000172847
-0.00252125 8.6648e-05 7.57499e-05
-0.00311722 2.30176e-05 0.000135516
-0.00384158 6.2507e-05 7.47421e-05
-0.00434474 2.31332e-05 9.84932e-05
-0.00485732 4.12118e-05 5.52135e-05
-0.00519434 1.39119e-05 5.98613e-05
-0.00546597 2.1515e-05 2.41477e-05
-0.0055933 -9.25956e-07 2.04192e-05
-0.00560677 3.61363e-06 -1.35963e-05
-0.00550722 -1.9114e-05 -1.74605e-05
-0.00525772 -1.12028e-05 -5.45451e-05
-0.0049402 -3.9439e-05 -5.00612e-05
-0.00443664 -2.05062e-05 -9.61172e-05
-0.00393919 -6.17245e-05 -7.17887e-05
-0.00320627 -2.03311e-05 -0.000136895
-0.0026019 -8.72283e-05 -7.45404e-05
-0.00169019 -4.98293e-06 -0.000177931
-0.00110752 -0.000126295 -4.12658e-05
-0.000199544 1.35578e-05 -0.000204405
0 0 0
0 0 0
0 0 0
0 0 0
0 0 0
0 0 0
0 0 0
0 0 0
0 0 0
0 0 0
0 0 0
0 0 0
0 0 0
0 0 0
0 0 0
0 0 0
0 0 0
0 0 0
0 0 0
0 0 0
0 0 0
0 0 0
0 0 0
0 0 0
0 0 0
0 0 0
0 0 0
0 0 0
0 0 0
0 0 0
0 0 0
0 0 0
0 0 0
0 0 0
0 0 0
0 0 0
0 0 0
0 0 0
0 0 0
0 0 0
0 0 0
0 0 0
0 0 0
0 0 0
0 0 0
0 0 0
0 0 0
0 0 0
0 0 0
0 0 0
-8.45893e-05 0.000120888 0.00110107
-0.00140399 -2.20596e-05 0.00128361
-0.00223628 0.000109134 0.00143335
-0.00349276 2.52707e-05 0.00131412
-0.00436275 8.35076e-05 0.00125931
-0.00536897 3.42392e-05 0.0010885
-0.0060908 5.97696e-05 0.000953788
-0.00679812 2.6907e-05 0.000753325
-0.00727604 3.6048e-05 0.00057111
-0.00764978 1.03588e-05 0.000349811
-0.0078288 1.25753e-05 0.00014291
-0.00784705 -1.13223e-05 -8.85232e-05
-0.00770536 -9.0789e-06 -0.000299099
-0.0073617 -3.56206e-05 -0.000528581
-0.00690996 -2.62397e-05 -0.000720488
-0.00621516 -6.08954e-05 -0.00093538
-0.00550077 -3.43729e-05 -0.00108198
-0.00448327 -8.66193e-05 -0.00126997
-0.00360118 -2.56749e-05 -0.00133294
-0.0023109 -0.000114254 -0.00146755
-0.00145591 2.32299e-05 -0.00131395
-9.21964e-05 -0.00012704 -0.00113755
0 0 0
0 0 0
-7.6761e-05 5.67412e-05 0.00143469
-0.00189573 -3.13767e-05 0.0017322
-0.0030829 5.74198e-05 0.00192631
-0.00478049 2.72844e-05 0.00178507
-0.00600412 6.2676e-05 0.00169753
-0.00735822 4.00901e-05 0.0014756
-0.0083614 5.08728e-05 0.00128449
-0.00931257 3.14353e-05 0.00101814
-0.00997119 3.07803e-05 0.00076601
-0.0104727 1.24959e-05 0.000469637
-0.0107163 6.97165e-06 0.000185787
-0.0107384 -1.1327e-05 -0.000124487
-0.0105395 -1.71657e-05 -0.00041301
-0.0100744 -3.6426e-05 -0.000719471
-0.00944698 -3.78462e-05 -0.000983984
-0.00851121 -5.90257e-05 -0.00126799
-0.00751631 -4.88738e-05 -0.0014745
-0.00614892 -7.35778e-05 -0.00171708
-0.00490954 -3.76658e-05 -0.00181559
-0.00317111 -6.98225e-05 -0.00197422
-0.0019556 2.23122e-05 -0.00177554
-8.14355e-05 -6.74047e-05 -0.00148215
0 0 0
0 0 0
-7.28341e-05 5.53992e-05 0.00154046
-0.00204474 -2.87595e-05 0.00186748
-0.00333319 4.81114e-05 0.00208311
-0.0051766 6.22253e-06 0.00192891
-0.00649296 4.68331e-05 0.0018353
-0.00795842 1.87085e-05 0.00159329
-0.00903527 3.6761e-05 0.00138726
-0.0100624 1.60357e-05 0.00109808
-0.0107688 2.22549e-05 0.000826118
-0.0113091 4.93281e-06 0.000505136
-0.0115698 5.96927e-06 0.000199034
-0.0115923 -1.06394e-05 -0.000136638
-0.0113776 -9.75738e-06 -0.000447586
-0.0108744 -2.79183e-05 -0.000779165
-0.0102003 -2.2005e-05 -0.00106394
-0.00918856 -4.43246e-05 -0.00137173
-0.00812066 -2.62379e-05 -0.00159363
-0.00664115 -5.65806e-05 -0.00185753
-0.00530922 -1.48277e-05 -0.00196218
-0.00342346 -5.94199e-05 -0.00213493
-0.00210633 2.06443e-05 -0.0019136
-7.85573e-05 -6.55636e-05 -0.00159089
0 0 0
0 0 0
-7.191e-05 2.04185e-05 0.00155555
-0.00207497 -3.00418e-05 0.00188824
-0.00338145 1.51981e-05 0.00210998
-0.00526461 -7.00111e-06 0.00195432
-0.00660428 2.02556e-05 0.00186
-0.00810021 5.41937e-06 0.00161487
-0.00919669 1.83457e-05 0.00140599
-0.0102442 6.59201e-06 0.00111284
-0.0109633 1.13505e-05 0.00083694
-0.011514 8.0288e-07 0.000511405
-0.0117791 1.82342e-06 0.000200822
-0.0118018 -8.63578e-06 -0.000139658
-0.0115831 -7.8071e-06 -0.00045515
-0.0110698 -1.90529e-05 -0.000791427
-0.0103832 -1.47317e-05 -0.00108031
-0.00935112 -2.77395e-05 -0.00139231
-0.00826362 -1.5088e-05 -0.00161723
-0.00675322 -3.14938e-05 -0.00188451
-0.0053978 -3.75691e-06 -0.00198989
-0.00347149 -2.75971e-05 -0.00216426
-0.00213635 1.959e-05 -0.0019364
-7.68918e-05 -3.11704e-05 -0.00160787
0 0 0
0 0 0
-7.12396e-05 1.53487e-05 0.00156289
-0.00208252 -2.51609e-05 0.00189196
-0.0033875 8.43559e-06 0.00211884
-0.00528499 -1.33079e-05 0.00195962
-0.00662475 1.00639e-05 0.00186763
-0.00813197 -4.10736e-06 0.00161963
-0.00922914 9.03262e-06 0.0014116
-0.0102839 -1.10693e-06 0.00111614
-0.0110038 5.57268e-06 0.000840251
-0.0115579 -2.70338e-06 0.0005127
-0.0118234 8.99846e-07 0.000201753
-0.0118462 -7.01973e-06 -0.00014068
-0.0116273 -3.52814e-06 -0.000456537
-0.0111105 -1.23551e-05 -0.000794922
-0.0104234 -5.90566e-06 -0.00108377
-0.00938404 -1.70731e-05 -0.00139829
-0.0082961 -3.9854e-06 -0.00162227
-0.00677412 -1.95441e-05 -0.00189275
-0.00541881 4.34739e-06 -0.00199559
-0.00347785 -1.90033e-05 -0.00217392
-0.00214431 1.61379e-05 -0.00194052
-7.67808e-05 -2.46582e-05 -0.00161597
0 0 0
0 0 0
-7.18406e-05 1.82985e-06 0.00156013
-0.00208225 -2.42313e-05 0.00188694
-0.00338361 -3.54742e-06 0.00211562
-0.00528521 -1.6646e-05 0.00195564
-0.00662366 -4.68884e-07 0.0018651
-0.0081352 -8.74009e-06 0.00161682
-0.00923226 1.21835e-06 0.00140983
-0.01029 -4.72853e-06 0.00111433
-0.0110101 8.51751e-07 0.000839219
-0.0115658 -4.13393e-06 0.000511724
-0.0118316 -7.66007e-07 0.00020141
-0.0118544 -5.64364e-06 -0.000140965
-0.0116355 -2.38763e-06 -0.000456201
-0.0111174 -7.82316e-06 -0.000794593
-0.0104302 -2.49175e-06 -0.0010827
-0.00938772 -9.25412e-06 -0.00139736
-0.00829996 5.57227e-07 -0.0016203
-0.00677343 -8.75942e-06 -0.0018912
-0.00541943 7.67945e-06 -0.00199251
-0.00347399 -6.5416e-06 -0.00217178
-0.00214411 1.52182e-05 -0.00193634
-7.71383e-05 -1.06017e-05 -0.00161417
0 0 0
0 0 0
-7.15121e-05 4.96854e-07 0.00156089
-0.00208255 -1.91973e-05 0.00188513
-0.00338114 -4.41117e-06 0.0021158
-0.00528546 -1.51685e-05 0.00195428
-0.0066217 -2.79551e-06 0.00186523
-0.00813606 -9.66849e-06 0.00161594
-0.0092317 -1.37398e-06 0.00140993
-0.0102914 -6.0465e-06 0.00111378
-0.0110108 -8.39545e-07 0.000839325
-0.0115675 -4.48337e-06 0.000511379
-0.0118331 -8.93743e-07 0.000201563
-0.0118559 -4.35714e-06 -0.000141214
-0.0116375 -8.44482e-07 -0.000455953
-0.0111183 -4.83777e-06 -0.000794848
-0.010432 2.01014e-07 -0.00108229
-0.00938754 -5.11824e-06 -0.00139771
-0.00830133 3.08595e-06 -0.00161964
-0.00677185 -4.64574e-06 -0.00189172
-0.00542015 7.92327e-06 -0.00199144
-0.00347182 -3.78522e-06 -0.00217246
-0.0021447 1.17869e-05 -0.00193486
-7.70557e-05 -7.65544e-06 -0.00161544
0 0 0
0 0 0
-7.1974e-05 -3.68394e-06 0.00155904
-0.00208207 -1.65521e-05 0.00188192
-0.00337885 -7.34735e-06 0.00211345
-0.00528394 -1.39115e-05 0.00195143
-0.00661887 -5.50104e-06 0.00186328
-0.00813463 -9.5527e-06 0.00161378
-0.00922963 -3.51391e-06 0.00140853
-0.0102905 -6.19583e-06 0.00111236
-0.0110097 -2.15053e-06 0.000838527
-0.0115671 -4.23325e-06 0.00051065
-0.0118327 -1.29255e-06 0.000201375
-0.0118555 -3.30099e-06 -0.000141322
-0.0116372 -4.27097e-07 -0.000455526
-0.0111175 -2.77867e-06 -0.000794393
-0.0104315 1.11466e-06 -0.00108123
-0.00938581 -2.05661e-06 -0.00139675
-0.00830032 3.8744e-06 -0.00161791
-0.00676931 -8.07869e-07 -0.0018903
-0.00541893 7.69892e-06 -0.00198907
-0.00346964 4.67668e-07 -0.00217073
-0.00214434 1.02331e-05 -0.00193214
-7.74342e-05 -2.28456e-06 -0.00161415
0 0 0
0 0 0
-7.1791e-05 -2.51236e-06 0.00155899
-0.00208203 -1.12866e-05 0.00188073
-0.00337769 -5.21262e-06 0.00211308
-0.00528353 -9.87135e-06 0.00195041
-0.00661742 -4.18991e-06 0.00186296
-0.00813418 -7.12976e-06 0.00161305
-0.00922848 -2.88819e-06 0.00140832
-0.0102902 -4.79011e-06 0.00111189
-0.011009 -1.80632e-06 0.000838434
-0.0115668 -3.21142e-06 0.000510385
-0.0118323 -9.40302e-07 0.000201423
-0.0118552 -2.26364e-06 -0.000141426
-0.0116371 -3.70588e-08 -0.000455321
-0.0111169 -1.6297e-06 -0.00079439
-0.0104314 1.25207e-06 -0.00108084
-0.00938492 -9.95385e-07 -0.00139669
-0.00830018 3.17039e-06 -0.00161732
-0.00676812 -2.22839e-07 -0.00189022
-0.00541879 5.51133e-06 -0.00198826
-0.00346866 3.67729e-07 -0.00217067
-0.00214446 6.80346e-06 -0.00193118
-7.73554e-05 -1.69989e-06 -0.00161442
0 0 0
0 0 0
-7.20054e-05 -2.76396e-06 0.00155813
-0.00208184 -7.52703e-06 0.00187929
-0.00337684 -4.36368e-06 0.002112
-0.00528282 -6.71141e-06 0.0019491
-0.00661613 -3.54024e-06 0.00186205
-0.00813334 -4.95381e-06 0.00161203
-0.00922731 -2.47607e-06 0.00140766
-0.0102895 -3.34731e-06 0.00111121
-0.0110082 -1.53716e-06 0.000838067
-0.0115662 -2.16483e-06 0.000510044
-0.0118317 -7.50902e-07 0.000201351
-0.0118547 -1.34911e-06 -0.000141466
-0.0116366 3.59006e-08 -0.000455095
-0.0111162 -7.04466e-07 -0.000794158
-0.0104309 1.03837e-06 -0.00108031
-0.00938392 -3.78023e-08 -0.00139621
-0.00829955 2.38575e-06 -0.00161649
-0.00676698 7.09234e-07 -0.00188955