# vtk DataFile Version 3.0
CFD lid driven cavity 3D
ASCII
DATASET STRUCTURED_POINTS
DIMENSIONS 25 25 25
ORIGIN 0 0 0
SPACING 0.0416667 0.0416667 0.0416667
CELL_DATA 13824
VECTORS velocity double
0 0 0
0 0 0
0 0 0
0 0 0
0 0 0
0 0 0
0 0 0
0 0 0
0 0 0
0 0 0
0 0 0
0 0 0
0 0 0
0 0 0
0 0 0
0 0 0
0 0 0
0 0 0
0 0 0
0 0 0
0 0 0
0 0 0
0 0 0
0 0 0
0 0 0
0 0 0
0 0 0
0 0 0
0 0 0
0 0 0
0 0 0
0 0 0
0 0 0
0 0 0
0 0 0
0 0 0
0 0 0
0 0 0
0 0 0
0 0 0
0 0 0
0 0 0
0 0 0
0 0 0
0 0 0
0 0 0
0 0 0
0 0 0
0 0 0
0 0 0
0 0 0
0 0 0
0 0 0
0 0 0
0 0 0
0 0 0
0 0 0
0 0 0
0 0 0
0 0 0
0 0 0
0 0 0
0 0 0
0 0 0
0 0 0
0 0 0
0 0 0
0 0 0
0 0 0
0 0 0
0 0 0
0 0 0
0 0 0
0 0 0
0 0 0
0 0 0
0 0 0
0 0 0
0 0 0
0 0 0
0 0 0
0 0 0
0 0 0
0 0 0
0 0 0
0 0 0
0 0 0
0 0 0
0 0 0
0 0 0
0 0 0
0 0 0
0 0 0
0 0 0
0 0 0
0 0 0
0 0 0
0 0 0
0 0 0
0 0 0
0 0 0
0 0 0
0 0 0
0 0 0
0 0 0
0 0 0
0 0 0
0 0 0
0 0 0
0 0 0
0 0 0
0 0 0
0 0 0
0 0 0
0 0 0
0 0 0
0 0 0
0 0 0
0 0 0
0 0 0
0 0 0
0 0 0
0 0 0
0 0 0
0 0 0
0 0 0
0 0 0
0 0 0
0 0 0
0 0 0
0 0 0
0 0 0
0 0 0
0 0 0
0 0 0
0 0 0
0 0 0
0 0 0
0 0 0
0 0 0
0 0 0
0 0 0
0 0 0
0 0 0
0 0 0
0 0 0
0 0 0
0 0 0
0 0 0
0 0 0
0 0 0
0 0 0
0 0 0
0 0 0
0 0 0
0 0 0
0 0 0
0 0 0
0 0 0
0 0 0
0 0 0
0 0 0
0 0 0
0 0 0
0 0 0
0 0 0
0 0 0
0 0 0
0 0 0
0 0 0
0 0 0
0 0 0
0 0 0
0 0 0
0 0 0
0 0 0
0 0 0
0 0 0
0 0 0
0 0 0
0 0 0
0 0 0
0 0 0
0 0 0
0 0 0
0 0 0
0 0 0
0 0 0
0 0 0
0 0 0
0 0 0
0 0 0
0 0 0
0 0 0
0 0 0
0 0 0
0 0 0
0 0 0
0 0 0
0 0 0
0 0 0
0 0 0
0 0 0
0 0 0
0 0 0
0 0 0
0 0 0
0 0 0
0 0 0
0 0 0
0 0 0
0 0 0
0 0 0
0 0 0
0 0 0
0 0 0
0 0 0
0 0 0
0 0 0
0 0 0
0 0 0
0 0 0
0 0 0
0 0 0
0 0 0
0 0 0
0 0 0
0 0 0
0 0 0
0 0 0
0 0 0
0 0 0
0 0 0
0 0 0
0 0 0
0 0 0
0 0 0
0 0 0
0 0 0
0 0 0
0 0 0
0 0 0
0 0 0
0 0 0
0 0 0
0 0 0
0 0 0
0 0 0
0 0 0
0 0 0
0 0 0
0 0 0
0 0 0
0 0 0
0 0 0
0 0 0
0 0 0
0 0 0
0 0 0
0 0 0
0 0 0
0 0 0
0 0 0
0 0 0
0 0 0
0 0 0
0 0 0
0 0 0
0 0 0
0 0 0
0 0 0
0 0 0
0 0 0
0 0 0
0 0 0
0 0 0
0 0 0
0 0 0
0 0 0
0 0 0
0 0 0
0 0 0
0 0 0
0 0 0
0 0 0
0 0 0
0 0 0
0 0 0
0 0 0
0 0 0
0 0 0
0 0 0
0 0 0
0 0 0
0 0 0
0 0 0
0 0 0
0 0 0
0 0 0
0 0 0
0 0 0
0 0 0
0 0 0
0 0 0
0 0 0
0 0 0
0 0 0
0 0 0
0 0 0
0 0 0
0 0 0
0 0 0
0 0 0
0 0 0
0 0 0
0 0 0
0 0 0
0 0 0
0 0 0
0 0 0
0 0 0
0 0 0
0 0 0
0 0 0
0 0 0
0 0 0
0 0 0
0 0 0
0 0 0
0 0 0
0 0 0
0 0 0
0 0 0
0 0 0
0 0 0
0 0 0
0 0 0
0 0 0
0 0 0
0 0 0
0 0 0
0 0 0
0 0 0
0 0 0
0 0 0
0 0 0
0 0 0
0 0 0
0 0 0
0 0 0
0 0 0
0 0 0
0 0 0
0 0 0
0 0 0
0 0 0
0 0 0
0 0 0
0 0 0
0 0 0
0 0 0
0 0 0
0 0 0
0 0 0
0 0 0
0 0 0
0 0 0
0 0 0
0 0 0
0 0 0
0 0 0
0 0 0
0 0 0
0 0 0
0 0 0
0 0 0
0 0 0
0 0 0
0 0 0
0 0 0
0 0 0
0 0 0
0 0 0
0 0 0
0 0 0
0 0 0
0 0 0
0 0 0
0 0 0
0 0 0
0 0 0
0 0 0
0 0 0
0 0 0
0 0 0
0 0 0
0 0 0
0 0 0
0 0 0
0 0 0
0 0 0
0 0 0
0 0 0
0 0 0
0 0 0
0 0 0
0 0 0
0 0 0
0 0 0
0 0 0
0 0 0
0 0 0
0 0 0
0 0 0
0 0 0
0 0 0
0 0 0
0 0 0
0 0 0
0 0 0
0 0 0
0 0 0
0 0 0
0 0 0
0 0 0
0 0 0
0 0 0
0 0 0
0 0 0
0 0 0
0 0 0
0 0 0
0 0 0
0 0 0
0 0 0
0 0 0
0 0 0
0 0 0
0 0 0
0 0 0
0 0 0
0 0 0
0 0 0
0 0 0
0 0 0
0 0 0
0 0 0
0 0 0
0 0 0
0 0 0
0 0 0
0 0 0
0 0 0
0 0 0
0 0 0
0 0 0
0 0 0
0 0 0
0 0 0
0 0 0
0 0 0
0 0 0
0 0 0
0 0 0
0 0 0
0 0 0
0 0 0
0 0 0
0 0 0
0 0 0
0 0 0
0 0 0
0 0 0
0 0 0
0 0 0
0 0 0
0 0 0
0 0 0
0 0 0
0 0 0
0 0 0
0 0 0
0 0 0
0 0 0
0 0 0
0 0 0
0 0 0
0 0 0
0 0 0
0 0 0
0 0 0
0 0 0
0 0 0
0 0 0
0 0 0
0 0 0
0 0 0
0 0 0
0 0 0
0 0 0
0 0 0
0 0 0
0 0 0
0 0 0
0 0 0
0 0 0
0 0 0
0 0 0
0 0 0
0 0 0
0 0 0
0 0 0
0 0 0
0 0 0
0 0 0
0 0 0
0 0 0
0 0 0
0 0 0
0 0 0
0 0 0
0 0 0
0 0 0
0 0 0
0 0 0
0 0 0
0 0 0
0 0 0
0 0 0
0 0 0
0 0 0
0 0 0
0 0 0
0 0 0
0 0 0
0 0 0
0 0 0
0 0 0
0 0 0
0 0 0
0 0 0
0 0 0
0 0 0
0 0 0
0 0 0
0 0 0
0 0 0
0 0 0
0 0 0
0 0 0
0 0 0
0 0 0
0 0 0
0 0 0
0 0 0
0 0 0
0 0 0
0 0 0
0 0 0
0 0 0
0 0 0
0 0 0
0 0 0
0 0 0
0 0 0
0 0 0
0 0 0
0 0 0
0 0 0
0 0 0
0 0 0
0 0 0
0 0 0
0 0 0
0 0 0
0 0 0
0 0 0
0 0 0
0 0 0
0 0 0
0 0 0
0 0 0
0 0 0
0 0 0
0 0 0
0 0 0
0 0 0
0 0 0
0 0 0
0 0 0
0 0 0
0 0 0
0 0 0
0 0 0
0 0 0
0 0 0
0 0 0
0 0 0
0 0 0
0 0 0
0 0 0
-0.000155696 3.09089e-06 0.000175027
-0.000844462 -0.000136247 2.0573e-05
-0.00138851 -1.22019e-05 0.000170018
-0.00231086 -0.000103098 6.49007e-05
-0.0029915 -2.93095e-05 0.00014064
-0.00383831 -7.92265e-05 7.17075e-05
-0.00445767 -3.08142e-05 0.000107859
-0.00509999 -5.64126e-05 5.82608e-05
-0.00554614 -2.1099e-05 7.26041e-05
-0.00591728 -3.45483e-05 3.10306e-05
-0.00612043 -4.05423e-06 3.56444e-05
-0.0061764 -1.44684e-05 -5.65569e-06
-0.00609784 1.78081e-05 -5.57078e-07
-0.00581395 1.96796e-06 -4.83681e-05
-0.00545031 4.2942e-05 -3.16478e-05
-0.00483045 1.16169e-05 -9.39313e-05
-0.00422732 7.05655e-05 -5.05555e-05
-0.0033253 9.78825e-06 -0.000139145
-0.00260237 0.000100668 -4.70475e-05
-0.00157358 -8.49782e-06 -0.000179627
-0.000969601 0.00014207 4.88453e-07
-0.000186198 -2.42151e-05 -0.000188597
0 0 0
0 0 0
-0.00016574 -4.39617e-05 0.000160558
-0.00125523 -0.000160619 6.35689e-06
-0.00214784 -5.17546e-05 0.000166512
-0.00354435 -7.37803e-05 6.71458e-05
-0.00464475 -1.53743e-05 0.000141296
-0.0059184 -3.05698e-05 7.64904e-05
-0.00689873 -4.86867e-06 0.000108688
-0.00786098 -1.99267e-05 6.07628e-05
-0.00855379 -1.09419e-05 7.05681e-05
-0.00910658 -2.7261e-05 2.88919e-05
-0.00941244 -2.62407e-05 2.84916e-05
-0.00949181 -4.49068e-05 -1.36814e-05
-0.00935595 -4.54275e-05 -1.41898e-05
-0.00892756 -6.69474e-05 -6.2498e-05
-0.00834476 -6.12346e-05 -5.19151e-05
-0.00741663 -8.45619e-05 -0.000112765
-0.00645141 -5.96261e-05 -7.52253e-05
-0.00510319 -8.24044e-05 -0.000158864
-0.00393452 -1.62543e-05 -6.92576e-05
-0.00239074 -4.15644e-05 -0.00019377
-0.00141013 9.02289e-05 -9.21453e-07
-0.000182897 -1.99291e-05 -0.000187823
0 0 0
0 0 0
-0.000175129 -4.77067e-05 0.000194201
-0.00147381 -0.000172965 1.83492e-05
-0.00255981 -6.97481e-05 0.000201227
-0.00421508 -0.000105021 8.36956e-05
-0.00552311 -3.68262e-05 0.000167622
-0.00701949 -5.89321e-05 9.05691e-05
-0.0081711 -2.35346e-05 0.00012741
-0.00929414 -4.16814e-05 7.12211e-05
-0.010101 -2.46657e-05 8.33332e-05
-0.0107409 -4.20609e-05 3.55257e-05
-0.0110916 -3.38167e-05 3.66659e-05
-0.0111774 -5.30778e-05 -1.10299e-05
-0.0110116 -4.60849e-05 -9.59225e-06
-0.010506 -6.91892e-05 -6.44115e-05
-0.00981936 -5.45206e-05 -5.03951e-05
-0.00873284 -8.21545e-05 -0.000120657
-0.00759868 -4.60089e-05 -7.67185e-05
-0.00602105 -7.7987e-05 -0.000175068
-0.00463975 -3.43339e-07 -7.33375e-05
-0.00282591 -4.19558e-05 -0.000219921
-0.00164386 8.58983e-05 -1.49067e-06
-0.000203721 -2.80253e-05 -0.000213995
0 0 0
0 0 0
-0.000186061 -7.57457e-05 0.00018732
-0.00156833 -0.000174412 5.12592e-06
-0.00273948 -0.000103104 0.00019668
-0.0045217 -0.00011899 7.69017e-05
-0.0059347 -6.36074e-05 0.000164169
-0.00754294 -7.0834e-05 8.66431e-05
-0.00878286 -4.2058e-05 0.000124576
-0.00998611 -5.15204e-05 6.8109e-05
-0.0108513 -4.00002e-05 8.01724e-05
-0.0115343 -5.29878e-05 3.18078e-05
-0.0119075 -5.05847e-05 3.22948e-05
-0.0119961 -6.69929e-05 -1.62091e-05
-0.0118138 -6.65849e-05 -1.56113e-05
-0.0112693 -8.53078e-05 -7.13057e-05
-0.0105273 -7.8135e-05 -5.7766e-05
-0.00936039 -9.64265e-05 -0.000128715
-0.00813644 -6.97924e-05 -8.39308e-05
-0.00644183 -8.45838e-05 -0.00018291
-0.00495125 -2.33949e-05 -7.72553e-05
-0.00300349 -4.07475e-05 -0.000225906
-0.00173521 5.21197e-05 3.19115e-06
-0.000208164 -2.21598e-05 -0.000215922
0 0 0
0 0 0
-0.00018841 -6.92761e-05 0.000202598
-0.00160949 -0.000155225 8.36972e-06
-0.0028139 -0.000103696 0.000211378
-0.00465914 -0.000123237 8.26992e-05
-0.0061149 -7.56746e-05 0.000175735
-0.00777805 -8.37672e-05 9.22267e-05
-0.00905358 -5.51582e-05 0.000133067
-0.0102949 -6.26019e-05 7.25449e-05
-0.0111834 -4.78421e-05 8.61294e-05
-0.0118861 -5.70628e-05 3.47467e-05
-0.0122682 -4.98589e-05 3.62665e-05
-0.0123575 -6.16007e-05 -1.49821e-05
-0.0121688 -5.58537e-05 -1.31888e-05
-0.0116053 -6.98938e-05 -7.21504e-05
-0.0108417 -5.82034e-05 -5.66132e-05
-0.00963596 -7.33103e-05 -0.000132257
-0.00837676 -4.59123e-05 -8.37821e-05
-0.00662498 -6.13095e-05 -0.000189939
-0.00509113 -8.88594e-06 -7.74384e-05
-0.00307924 -3.10675e-05 -0.000236656
-0.00177748 3.87529e-05 4.99672e-06
-0.000216541 -2.26441e-05 -0.000227563
0 0 0
0 0 0
-0.000194785 -7.68601e-05 0.000198865
-0.00162112 -0.00014354 2.49449e-07
-0.00283377 -0.000112073 0.000207948
-0.00470339 -0.000124714 7.65487e-05
-0.00617564 -8.85417e-05 0.00017261
-0.00786383 -9.09417e-05 8.7761e-05
-0.00915532 -6.69339e-05 0.000130423
-0.0104152 -6.9351e-05 6.92e-05
-0.0113149 -5.60539e-05 8.38362e-05
-0.0120277 -6.08079e-05 3.19324e-05
-0.0124145 -5.38813e-05 3.41077e-05
-0.0125045 -6.11285e-05 -1.77033e-05
-0.0123131 -5.55729e-05 -1.52908e-05
-0.0117404 -6.4354e-05 -7.49847e-05
-0.0109665 -5.40219e-05 -5.84276e-05
-0.00974132 -6.26916e-05 -0.000135119
-0.00846552 -4.03008e-05 -8.46461e-05
-0.00668614 -4.83748e-05 -0.000192527
-0.00513459 -8.94603e-06 -7.63471e-05
-0.00309592 -2.27706e-05 -0.000238718
-0.00178652 2.43589e-05 8.91583e-06
-0.00021993 -1.64971e-05 -0.000228797
0 0 0
0 0 0
-0.000194778 -6.29346e-05 0.000205761
-0.0016235 -0.000116237 1.57795e-06
-0.00283572 -9.59058e-05 0.000214433
-0.00471663 -0.00010793 7.88007e-05
-0.00619295 -8.04321e-05 0.00017791
-0.00789328 -8.29441e-05 9.00913e-05
-0.00918967 -6.27656e-05 0.000134441
-0.0104585 -6.40533e-05 7.11447e-05
-0.0113621 -5.13701e-05 8.6729e-05
-0.0120797 -5.38274e-05 3.32524e-05
-0.0124684 -4.58087e-05 3.60939e-05
-0.0125588 -4.99909e-05 -1.71641e-05
-0.012367 -4.29349e-05 -1.40075e-05
-0.0117899 -4.84897e-05 -7.54164e-05
-0.011013 -3.78792e-05 -5.76751e-05
-0.00977839 -4.41209e-05 -0.000136783
-0.00849784 -2.50838e-05 -8.42252e-05
-0.00670516 -3.24709e-05 -0.000195676
-0.00514927 -2.72633e-06 -7.59193e-05
-0.00309895 -1.62799e-05 -0.000243323
-0.00178969 1.62395e-05 9.94618e-06
-0.000223083 -1.47629e-05 -0.000233992
0 0 0
0 0 0
-0.000198076 -5.77111e-05 0.000203741
-0.00162203 -9.7061e-05 -2.57468e-06
-0.00283145 -8.58441e-05 0.000212463
-0.00471463 -9.37885e-05 7.51863e-05
-0.00619091 -7.42606e-05 0.000176089
-0.00789631 -7.46192e-05 8.72718e-05
-0.0091944 -5.89648e-05 0.000132898
-0.0104679 -5.82825e-05 6.90244e-05
-0.0113734 -4.7713e-05 8.54853e-05
-0.0120938 -4.80256e-05 3.16119e-05
-0.0124838 -4.08889e-05 3.51188e-05
-0.0125747 -4.25869e-05 -1.85304e-05
-0.0123829 -3.62179e-05 -1.47052e-05
-0.0118034 -3.88807e-05 -7.66383e-05
-0.0110253 -2.99846e-05 -5.79723e-05
-0.00978557 -3.30345e-05 -0.000137889
-0.00850318 -1.84088e-05 -8.38683e-05
-0.00670415 -2.23978e-05 -0.000196628
-0.00514782 -1.34191e-06 -7.46382e-05
-0.00309395 -1.01968e-05 -0.000244092
-0.00178759 1.08342e-05 1.21194e-05
-0.000225074 -9.5574e-06 -0.00023457
0 0 0
0 0 0
-0.000197746 -3.94714e-05 0.000206718
-0.00162026 -6.71403e-05 -1.93355e-06
-0.00282699 -6.04334e-05 0.00021529
-0.00471146 -6.65418e-05 7.61509e-05
-0.0061866 -5.34425e-05 0.00017849
-0.00789475 -5.39977e-05 8.8286e-05
-0.00919295 -4.29519e-05 0.000134769
-0.010469 -4.2424e-05 6.98806e-05
-0.0113751 -3.45458e-05 8.68461e-05
-0.0120971 -3.44666e-05 3.2177e-05
-0.0124877 -2.88042e-05 3.60447e-05
-0.0125788 -2.95915e-05 -1.83489e-05
-0.0123873 -2.44239e-05 -1.4126e-05
-0.0118066 -2.59516e-05 -7.69311e-05
-0.0110285 -1.9162e-05 -5.76464e-05
-0.009786 -2.12484e-05 -0.000138752
-0.00850365 -1.09204e-05 -8.36803e-05
-0.00670133 -1.41597e-05 -0.000198121
-0.00514599 -1.87799e-07 -7.44334e-05
-0.00309055 -7.13995e-06 -0.000246138
-0.00178657 6.20494e-06 1.25074e-05
-0.000226256 -7.69306e-06 -0.000236856
0 0 0
0 0 0
-0.000199125 -2.73992e-05 0.000205826
-0.00161888 -4.35852e-05 -3.65328e-06
-0.0028238 -4.06647e-05 0.000214419
-0.00470773 -4.38399e-05 7.45639e-05
-0.00618175 -3.63595e-05 0.000177691
-0.00789087 -3.6161e-05 8.70033e-05
-0.00918892 -2.94509e-05 0.000134096
-0.0104662 -2.85728e-05 6.89087e-05
-0.0113727 -2.35593e-05 8.63242e-05
-0.0120957 -2.29677e-05 3.14484e-05
-0.0124866 -1.92302e-05 3.5679e-05
-0.012578 -1.9174e-05 -1.89141e-05
-0.0123867 -1.57446e-05 -1.43217e-05
-0.0118053 -1.61136e-05 -7.73938e-05
-0.0110272 -1.178e-05 -5.7624e-05
-0.00978328 -1.24505e-05 -0.000139143
-0.00850108 -6.19651e-06 -8.33603e-05
-0.00669726 -7.56029e-06 -0.000198447
-0.00514287 4.61644e-07 -7.37602e-05
-0.00308738 -3.12971e-06 -0.000246401
-0.00178519 4.03981e-06 1.34472e-05
-0.000227152 -3.49175e-06 -0.000237067
0 0 0
0 0 0
-0.000198982 -7.11531e-06 0.000206656
-0.00161816 -1.25247e-05 -3.46093e-06
-0.00282216 -1.13727e-05 0.000215217
-0.00470609 -1.2648e-05 7.48369e-05
-0.00617954 -1.02171e-05 0.000178383
-0.00788918 -1.03955e-05 8.72897e-05
-0.00918708 -8.27972e-06 0.000134642
-0.010465 -8.21025e-06 6.91502e-05
-0.0113715 -6.6546e-06 8.67239e-05
-0.0120949 -6.64246e-06 3.16035e-05
-0.0124861 -5.48984e-06 3.59489e-05
-0.0125775 -5.63228e-06 -1.88753e-05
-0.0123864 -4.56991e-06 -1.41571e-05
-0.0118046 -4.86472e-06 -7.7498e-05
-0.0110267 -3.51235e-06 -5.75355e-05
-0.00978209 -3.95451e-06 -0.000139413
-0.0085001 -1.99152e-06 -8.33116e-05
-0.0066956 -2.72049e-06 -0.000198893
-0.00514175 -1.78981e-07 -7.37072e-05
-0.00308614 -1.6508e-06 -0.000246991
-0.00178476 7.13374e-07 1.35435e-05
-0.000227456 -1.89765e-06 -0.000237717
0 0 0
0 0 0
-0.000198982 7.11531e-06 0.000206656
-0.00161816 1.25247e-05 -3.46093e-06
-0.00282216 1.13727e-05 0.000215217
-0.00470609 1.2648e-05 7.48369e-05
-0.00617954 1.02171e-05 0.000178383
-0.00788918 1.03955e-05 8.72897e-05
-0.00918708 8.27972e-06 0.000134642
-0.010465 8.21025e-06 6.91502e-05
-0.0113715 6.6546e-06 8.67239e-05
-0.0120949 6.64246e-06 3.16035e-05
-0.0124861 5.48984e-06 3.59489e-05
-0.0125775 5.63228e-06 -1.88753e-05
-0.0123864 4.56991e-06 -1.41571e-05
-0.0118046 4.86472e-06 -7.7498e-05
-0.0110267 3.51235e-06 -5.75355e-05
-0.00978209 3.95451e-06 -0.000139413
-0.0085001 1.99152e-06 -8.33116e-05
-0.0066956 2.72049e-06 -0.000198893
-0.00514175 1.78981e-07 -7.37072e-05
-0.00308614 1.6508e-06 -0.000246991
-0.00178476 -7.13374e-07 1.35435e-05
-0.000227456 1.89765e-06 -0.000237717
0 0 0
0 0 0
-0.000199125 2.73992e-05 0.000205826
-0.00161888 4.35852e-05 -3.65328e-06
-0.0028238 4.06647e-05 0.000214419
-0.00470773 4.38399e-05 7.45639e-05
-0.00618175 3.63595e-05 0.000177691
-0.00789087 3.6161e-05 8.70033e-05
-0.00918892 2.94509e-05 0.000134096
-0.0104662 2.85728e-05 6.89087e-05
-0.0113727 2.35593e-05 8.63242e-05
-0.0120957 2.29677e-05 3.14484e-05
-0.0124866 1.92302e-05 3.5679e-05
-0.012578 1.9174e-05 -1.89141e-05
-0.0123867 1.57446e-05 -1.43217e-05
-0.0118053 1.61136e-05 -7.73938e-05
-0.0110272 1.178e-05 -5.7624e-05
-0.00978328 1.24505e-05 -0.000139143
-0.00850108 6.19651e-06 -8.33603e-05
-0.00669726 7.56029e-06 -0.000198447
-0.00514287 -4.61644e-07 -7.37602e-05
-0.00308738 3.12971e-06 -0.000246401
-0.00178519 -4.03981e-06 1.34472e-05
-0.000227152 3.49175e-06 -0.000237067
0 0 0
0 0 0
-0.000197746 3.94714e-05 0.000206718
-0.00162026 6.71403e-05 -1.93355e-06
-0.00282699 6.04334e-05 0.00021529
-0.00471146 6.65418e-05 7.61509e-05
-0.0061866 5.34425e-05 0.00017849
-0.00789475 5.39977e-05 8.8286e-05
-0.00919295 4.29519e-05 0.000134769
-0.010469 4.2424e-05 6.98806e-05
-0.0113751 3.45458e-05 8.68461e-05
-0.0120971 3.44666e-05 3.2177e-05
-0.0124877 2.88042e-05 3.60447e-05
-0.0125788 2.95915e-05 -1.83489e-05
-0.0123873 2.44239e-05 -1.4126e-05
-0.0118066 2.59516e-05 -7.69311e-05
-0.0110285 1.9162e-05 -5.76464e-05
-0.009786 2.12484e-05 -0.000138752
-0.00850365 1.09204e-05 -8.36803e-05
-0.00670133 1.41597e-05 -0.000198121
-0.00514599 1.87799e-07 -7.44334e-05
-0.00309055 7.13995e-06 -0.000246138
-0.00178657 -6.20494e-06 1.25074e-05
-0.000226256 7.69306e-06 -0.000236856
0 0 0
0 0 0
-0.000198076 5.77111e-05 0.000203741
-0.00162203 9.7061e-05 -2.57468e-06
-0.00283145 8.58441e-05 0.000212463
-0.00471463 9.37885e-05 7.51863e-05
-0.00619091 7.42606e-05 0.000176089
-0.00789631 7.46192e-05 8.72718e-05
-0.0091944 5.89648e-05 0.000132898
-0.0104679 5.82825e-05 6.90244e-05
-0.0113734 4.7713e-05 8.54853e-05
-0.0120938 4.80256e-05 3.16119e-05
-0.0124838 4.08889e-05 3.51188e-05
-0.0125747 4.25869e-05 -1.85304e-05
-0.0123829 3.62179e-05 -1.47052e-05
-0.0118034 3.88807e-05 -7.66383e-05
-0.0110253 2.99846e-05 -5.79723e-05
-0.00978557 3.30345e-05 -0.000137889
-0.00850318 1.84088e-05 -8.38683e-05
-0.00670415 2.23978e-05 -0.000196628
-0.00514782 1.34191e-06 -7.46382e-05
-0.00309395 1.01968e-05 -0.000244092
-0.00178759 -1.08342e-05 1.21194e-05
-0.000225074 9.5574e-06 -0.00023457
0 0 0
0 0 0
-0.000194778 6.29346e-05 0.000205761
-0.0016235 0.000116237 1.57795e-06
-0.00283572 9.59058e-05 0.000214433
-0.00471663 0.00010793 7.88007e-05
-0.00619295 8.04321e-05 0.00017791
-0.00789328 8.29441e-05 9.00913e-05
-0.00918967 6.27656e-05 0.000134441
-0.0104585 6.40533e-05 7.11447e-05
-0.0113621 5.13701e-05 8.6729e-05
-0.0120797 5.38274e-05 3.32524e-05
-0.0124684 4.58087e-05 3.60939e-05
-0.0125588 4.99909e-05 -1.71641e-05
-0.012367 4.29349e-05 -1.40075e-05
-0.0117899 4.84897e-05 -7.54164e-05
-0.011013 3.78792e-05 -5.76751e-05
-0.00977839 4.41209e-05 -0.000136783
-0.00849784 2.50838e-05 -8.42252e-05
-0.00670516 3.24709e-05 -0.000195676
-0.00514927 2.72633e-06 -7.59193e-05
-0.00309895 1.62799e-05 -0.000243323
-0.00178969 -1.62395e-05 9.94618e-06
-0.000223083 1.47629e-05 -0.000233992
0 0 0
0 0 0
-0.000194785 7.68601e-05 0.000198865
-0.00162112 0.00014354 2.49449e-07
-0.00283377 0.000112073 0.000207948
-0.00470339 0.000124714 7.65487e-05
-0.00617564 8.85417e-05 0.00017261
-0.00786383 9.09417e-05 8.7761e-05
-0.00915532 6.69339e-05 0.000130423
-0.0104152 6.9351e-05 6.92e-05
-0.0113149 5.60539e-05 8.38362e-05
-0.0120277 6.08079e-05 3.19324e-05
-0.0124145 5.38813e-05 3.41077e-05
-0.0125045 6.11285e-05 -1.77033e-05
-0.0123131 5.55729e-05 -1.52908e-05
-0.0117404 6.4354e-05 -7.49847e-05
-0.0109665 5.40219e-05 -5.84276e-05
-0.00974132 6.26916e-05 -0.000135119
-0.00846552 4.03008e-05 -8.46461e-05
-0.00668614 4.83748e-05 -0.000192527
-0.00513459 8.94603e-06 -7.63471e-05
-0.00309592 2.27706e-05 -0.000238718
-0.00178652 -2.43589e-05 8.91583e-06
-0.00021993 1.64971e-05 -0.000228797
0 0 0
0 0 0
-0.00018841 6.92761e-05 0.000202598
-0.00160949 0.000155225 8.36972e-06
-0.0028139 0.000103696 0.000211378
-0.00465914 0.000123237 8.26992e-05
-0.0061149 7.56746e-05 0.000175735
-0.00777805 8.37672e-05 9.22267e-05
-0.00905358 5.51582e-05 0.000133067
-0.0102949 6.26019e-05 7.25449e-05
-0.0111834 4.78421e-05 8.61294e-05
-0.0118861 5.70628e-05 3.47467e-05
-0.0122682 4.98589e-05 3.62665e-05
-0.0123575 6.16007e-05 -1.49821e-05
-0.0121688 5.58537e-05 -1.31888e-05
-0.0116053 6.98938e-05 -7.21504e-05
-0.0108417 5.82034e-05 -5.66132e-05
-0.00963596 7.33103e-05 -0.000132257
-0.00837676 4.59123e-05 -8.37821e-05
-0.00662498 6.13095e-05 -0.000189939
-0.00509113 8.88594e-06 -7.74384e-05
-0.00307924 3.10675e-05 -0.000236656
-0.00177748 -3.87529e-05 4.99672e-06
-0.000216541 2.26441e-05 -0.000227563
0 0 0
0 0 0
-0.000186061 7.57457e-05 0.00018732
-0.00156833 0.000174412 5.12592e-06
-0.00273948 0.000103104 0.00019668
-0.0045217 0.00011899 7.69017e-05
-0.0059347 6.36074e-05 0.000164169
-0.00754294 7.0834e-05 8.66431e-05
-0.00878286 4.2058e-05 0.000124576
-0.00998611 5.15204e-05 6.8109e-05
-0.0108513 4.00002e-05 8.01724e-05
-0.0115343 5.29878e-05 3.18078e-05
-0.0119075 5.05847e-05 3.22948e-05
-0.0119961 6.69929e-05 -1.62091e-05
-0.0118138 6.65849e-05 -1.56113e-05
-0.0112693 8.53078e-05 -7.13057e-05
-0.0105273 7.8135e-05 -5.7766e-05
-0.00936039 9.64265e-05 -0.000128715
-0.00813644 6.97924e-05 -8.39308e-05
-0.00644183 8.45838e-05 -0.00018291
-0.00495125 2.33949e-05 -7.72553e-05
-0.00300349 4.07475e-05 -0.000225906
-0.00173521 -5.21197e-05 3.19115e-06
-0.000208164 2.21598e-05 -0.000215922
0 0 0
0 0 0
-0.000175129 4.77067e-05 0.000194201
-0.00147381 0.000172965 1.83492e-05
-0.00255981 6.97481e-05 0.000201227
-0.00421508 0.000105021 8.36956e-05
-0.00552311 3.68262e-05 0.000167622
-0.00701949 5.89321e-05 9.05691e-05
-0.0081711 2.35346e-05 0.00012741
-0.00929414 4.16814e-05 7.12211e-05
-0.010101 2.46657e-05 8.33332e-05
-0.0107409 4.20609e-05 3.55257e-05
-0.0110916 3.38167e-05 3.66659e-05
-0.0111774 5.30778e-05 -1.10299e-05
-0.0110116 4.60849e-05 -9.59225e-06
-0.010506 6.91892e-05 -6.44115e-05
-0.00981936 5.45206e-05 -5.03951e-05
-0.00873284 8.21545e-05 -0.000120657
-0.00759868 4.60089e-05 -7.67185e-05
-0.00602105 7.7987e-05 -0.000175068
-0.00463975 3.43339e-07 -7.33375e-05
-0.00282591 4.19558e-05 -0.000219921
-0.00164386 -8.58983e-05 -1.49067e-06
-0.000203721 2.80253e-05 -0.000213995
0 0 0
0 0 0
-0.00016574 4.39617e-05 0.000160558
-0.00125523 0.000160619 6.35689e-06
-0.00214784 5.17546e-05 0.000166512
-0.00354435 7.37803e-05 6.71458e-05
-0.00464475 1.53743e-05 0.000141296
-0.0059184 3.05698e-05 7.64904e-05
-0.00689873 4.86867e-06 0.000108688
-0.00786098 1.99267e-05 6.07628e-05
-0.00855379 1.09419e-05 7.05681e-05
-0.00910658 2.7261e-05 2.88919e-05
-0.00941244 2.62407e-05 2.84916e-05
-0.00949181 4.49068e-05 -1.36814e-05
-0.00935595 4.54275e-05 -1.41898e-05
-0.00892756 6.69474e-05 -6.2498e-05
-0.00834476 6.12346e-05 -5.19151e-05
-0.00741663 8.45619e-05 -0.000112765
-0.00645141 5.96261e-05 -7.52253e-05
-0.00510319 8.24044e-05 -0.000158864
-0.00393452 1.62543e-05 -6.92576e-05
-0.00239074 4.15644e-05 -0.00019377
-0.00141013 -9.02289e-05 -9.21453e-07
-0.000182897 1.99291e-05 -0.000187823
0 0 0
0 0 0
-0.000155696 -3.09089e-06 0.000175027
-0.000844462 0.000136247 2.0573e-05
-0.00138851 1.22019e-05 0.000170018
-0.00231086 0.000103098 6.49007e-05
-0.0029915 2.93095e-05 0.00014064
-0.00383831 7.92265e-05 7.17075e-05
-0.00445767 3.08142e-05 0.000107859
-0.00509999 5.64126e-05 5.82608e-05
-0.00554614 2.1099e-05 7.26041e-05
-0.00591728 3.45483e-05 3.10306e-05
-0.00612043 4.05423e-06 3.56444e-05
-0.0061764 1.44684e-05 -5.65569e-06
-0.00609784 -1.78081e-05 -5.57078e-07
-0.00581395 -1.96796e-06 -4.83681e-05
-0.00545031 -4.2942e-05 -3.16478e-05
-0.00483045 -1.16169e-05 -9.39313e-05
-0.00422732 -7.05655e-05 -5.05555e-05
-0.0033253 -9.78825e-06 -0.000139145
-0.00260237 -0.000100668 -4.70475e-05
-0.00157358 8.49782e-06 -0.000179627
-0.000969601 -0.00014207 4.88453e-07
-0.000186198 2.42151e-05 -0.000188597
0 0 0
0 0 0
0 0 0
0 0 0
0 0 0
0 0 0
0 0 0
0 0 0
0 0 0
0 0 0
0 0 0
0 0 0
0 0 0
0 0 0
0 0 0
0 0 0
0 0 0
0 0 0
0 0 0
0 0 0
0 0 0
0 0 0
0 0 0
0 0 0
0 0 0
0 0 0
0 0 0
0 0 0
0 0 0
0 0 0
0 0 0
0 0 0
0 0 0
0 0 0
0 0 0
0 0 0
0 0 0
0 0 0
0 0 0
0 0 0
0 0 0
0 0 0
0 0 0
0 0 0
0 0 0
0 0 0
0 0 0
0 0 0
0 0 0
0 0 0
-5.09295e-05 0.000117621 0.000927541
-0.0012253 -3.24347e-05 0.00116794
-0.00214826 0.000120632 0.00149696
-0.00362456 2.79604e-05 0.00146068
-0.00477164 0.00010206 0.00147783
-0.00610499 4.34715e-05 0.00131857
-0.00712526 7.803e-05 0.00119676
-0.00812927 3.58377e-05 0.000980114
-0.00885127 4.94483e-05 0.000784168
-0.00942977 1.37997e-05 0.000528592
-0.00975253 1.82987e-05 0.000288482
-0.00984086 -1.71184e-05 4.96295e-06
-0.00970722 -1.21575e-05 -0.000252935
-0.00926758 -5.28411e-05 -0.000549169
-0.00866919 -3.70509e-05 -0.000790455
-0.00770456 -8.92825e-05 -0.00107592
-0.00670372 -4.80246e-05 -0.0012476
-0.00528915 -0.000121846 -0.00148123
-0.00406869 -3.23365e-05 -0.00148512
-0.00242949 -0.000146613 -0.00157676
-0.00140805 3.59487e-05 -0.001211
-8.03185e-05 -0.000144968 -0.00100224
0 0 0
0 0 0
-6.36778e-05 8.16969e-06 0.0013168
-0.00191274 -0.000133685 0.00177604
-0.0034569 2.54096e-05 0.00227783
-0.00574387 1.13571e-05 0.00227596
-0.0076187 8.63163e-05 0.00228039
-0.00967793 6.53433e-05 0.00205229
-0.011315 8.45228e-05 0.00184079
-0.0128599 5.1835e-05 0.00150938
-0.0139998 4.16964e-05 0.00118658
-0.0148836 3.01803e-07 0.00078979
-0.0153787 -2.44677e-05 0.000400957
-0.0155049 -7.2136e-05 -3.91705e-05
-0.0152724 -0.000100608 -0.000455259
-0.0145877 -0.000151659 -0.000910928
-0.0136161 -0.000170563 -0.00130369
-0.01213 -0.000218276 -0.001733
-0.0105106 -0.000205053 -0.00202259
-0.00833945 -0.000238658 -0.00235084
-0.00634856 -0.000155656 -0.00238139
-0.00383361 -0.000172363 -0.00244512
-0.00214356 2.05584e-05 -0.00189048
-7.61667e-05 -0.000105697 -0.00144686
0 0 0
0 0 0
-5.80042e-05 -1.65093e-06 0.00154429
-0.00228946 -0.000156271 0.00212366
-0.00418835 -9.11805e-06 0.0027341
-0.00693306 -3.67345e-05 0.0027473
-0.0091933 4.94793e-05 0.00274722
-0.0116457 2.35259e-05 0.00247286
-0.0135985 5.43125e-05 0.00220942
-0.015427 2.01155e-05 0.00180688
-0.0167752 1.92769e-05 0.00141094
-0.0178129 -2.21266e-05 0.000930115
-0.018389 -3.88115e-05 0.000456884
-0.0185269 -8.62349e-05 -7.4393e-05
-0.0182383 -0.000106335 -0.000578795
-0.0174179 -0.000157905 -0.00112681
-0.0162544 -0.000166491 -0.00160278
-0.0144896 -0.000216906 -0.00211681
-0.0125567 -0.000190354 -0.00246913
-0.00998125 -0.00023124 -0.00285598
-0.00759404 -0.00013507 -0.00289353
-0.00460134 -0.000168288 -0.00294495
-0.00254211 1.5171e-05 -0.00226836
-8.1465e-05 -0.000114473 -0.00169578
0 0 0
0 0 0
-6.56908e-05 -6.84883e-05 0.00161201
-0.00246032 -0.000197575 0.00224249
-0.00452386 -9.5936e-05 0.00290935
-0.00749765 -0.000104699 0.00293632
-0.00995433 -3.09682e-05 0.0029375
-0.0126067 -3.74884e-05 0.00264583
-0.0147216 -7.72125e-06 0.00235927
-0.0166929 -2.64587e-05 0.00192624
-0.018147 -2.53372e-05 0.00149665
-0.019261 -5.45684e-05 0.000978493
-0.0198771 -6.88763e-05 0.000465997
-0.0200198 -0.000105249 -0.000106337
-0.0197006 -0.000123485 -0.000652167
-0.0188108 -0.000162346 -0.00124164
-0.0175462 -0.000170268 -0.00175672
-0.0156387 -0.000203547 -0.00230746
-0.0135411 -0.00018008 -0.00268826
-0.0107579 -0.000198095 -0.00309652
-0.00816677 -0.000117724 -0.00313257
-0.00493436 -0.000126132 -0.00316755
-0.00270789 8.87479e-06 -0.00242456
-8.07184e-05 -7.76624e-05 -0.00179023
0 0 0
0 0 0
-6.10519e-05 -7.06638e-05 0.00165014
-0.00253263 -0.000184737 0.00229394
-0.00466374 -0.000114487 0.00299223
-0.00775106 -0.000130372 0.00302121
-0.0102936 -6.77665e-05 0.00302678
-0.0130443 -7.42042e-05 0.00272428
-0.0152301 -4.25634e-05 0.00242903
-0.0172699 -5.54769e-05 0.00198001
-0.0187697 -4.66382e-05 0.00153609
-0.0199193 -6.68484e-05 0.000999439
-0.0205526 -7.07414e-05 0.000469827
-0.0206966 -9.6504e-05 -0.000122501
-0.0203643 -0.000103372 -0.000686279
-0.0194406 -0.000131501 -0.00129626
-0.0181326 -0.000129376 -0.00182766
-0.0161556 -0.00015454 -0.0023976
-0.013987 -0.000127333 -0.00278862
-0.0111015 -0.000144457 -0.00321029
-0.00842273 -7.63838e-05 -0.00324039
-0.00507414 -9.37141e-05 -0.00327305
-0.00277983 5.10172e-06 -0.00249217
-8.10754e-05 -6.67608e-05 -0.00183988
0 0 0
0 0 0
-6.50402e-05 -9.24521e-05 0.00164538
-0.00255453 -0.000184023 0.00228848
-0.00470554 -0.000143113 0.00299986
-0.00783814 -0.000153804 0.00303055
-0.0104151 -0.000105727 0.00304054
-0.0132103 -0.000105123 0.00273593
-0.0154275 -7.63171e-05 0.00243996
-0.0174997 -8.02453e-05 0.00198708
-0.0190209 -6.85166e-05 0.00154002
-0.020188 -7.88347e-05 0.000998462
-0.0208299 -7.74186e-05 0.000464379
-0.0209752 -9.25718e-05 -0.00013367
-0.0206373 -9.37027e-05 -0.000702477
-0.0196976 -0.00011044 -0.00131858
-0.0183694 -0.000104481 -0.00185443
-0.0163587 -0.000118198 -0.00243004
-0.0141575 -9.35074e-05 -0.00282275
-0.0112237 -0.000101234 -0.00324777
-0.00850839 -4.94913e-05 -0.00327244
-0.00511103 -6.02848e-05 -0.00330294
-0.00279745 5.11172e-06 -0.00250474
-8.10691e-05 -4.3822e-05 -0.00184932
0 0 0
0 0 0
-6.23158e-05 -7.91859e-05 0.00164484
-0.00255867 -0.000153158 0.00228216
-0.00471197 -0.000128535 0.00300053
-0.00786462 -0.000140209 0.00302977
-0.0104526 -0.000103988 0.00304356
-0.0132687 -0.000103804 0.00273722
-0.0154975 -7.89133e-05 0.00244245
-0.0175852 -8.01495e-05 0.00198766
-0.0191149 -6.71186e-05 0.00154048
-0.0202904 -7.23371e-05 0.000996832
-0.0209361 -6.68453e-05 0.000461905
-0.0210821 -7.55046e-05 -0.000138539
-0.0207426 -7.1837e-05 -0.000708417
-0.0197954 -8.19381e-05 -0.00132729
-0.0184601 -7.30391e-05 -0.00186376
-0.0164332 -8.19247e-05 -0.00244241
-0.0142203 -6.00676e-05 -0.00283413
-0.0112636 -6.69569e-05 -0.00326198
-0.0085365 -2.83156e-05 -0.00328207
-0.00511796 -4.08931e-05 -0.00331446
-0.00280177 3.0135e-06 -0.00250681
-8.07542e-05 -3.44709e-05 -0.00185548
0 0 0
0 0 0
-6.45688e-05 -7.55506e-05 0.0016345
-0.00255646 -0.000131309 0.00226638
-0.00470643 -0.000118956 0.00298708
-0.00786397 -0.000127003 0.00301583
-0.0104539 -0.000101244 0.00303249
-0.0132787 -9.90117e-05 0.00272655
-0.0155118 -7.90101e-05 0.00243403
-0.0176072 -7.71134e-05 0.00197995
-0.019141 -6.49645e-05 0.00153451
-0.0203211 -6.59115e-05 0.000991564
-0.0209691 -5.91749e-05 0.000458001
-0.0211158 -6.27182e-05 -0.000141955
-0.020776 -5.73772e-05 -0.000710674
-0.019825 -6.19799e-05 -0.00132937
-0.0184867 -5.30147e-05 -0.00186456
-0.0164517 -5.68444e-05 -0.00244336
-0.014234 -3.93021e-05 -0.00283314
-0.0112668 -4.23908e-05 -0.0032614
-0.00853685 -1.50693e-05 -0.00327825
-0.00511148 -2.35801e-05 -0.00331159
-0.00279857 4.11301e-06 -0.00249989
-8.11921e-05 -2.11075e-05 -0.00185272
0 0 0
0 0 0
-6.33014e-05 -5.28631e-05 0.00163081
-0.00255349 -9.22643e-05 0.00225829
-0.00469971 -8.55836e-05 0.00298045
-0.00785942 -9.20857e-05 0.00300815
-0.0104487 -7.49037e-05 0.00302677
-0.0132779 -7.36152e-05 0.00272067
-0.0155123 -5.93391e-05 0.00242973
-0.0176117 -5.76395e-05 0.00197582
-0.0191471 -4.82205e-05 0.0015316
-0.0203299 -4.81115e-05 0.000988916
-0.020979 -4.21889e-05 0.000456332
-0.0211262 -4.37379e-05 -0.000143461
-0.0207866 -3.87286e-05 -0.000711294
-0.0198337 -4.11095e-05 -0.00133005
-0.0184945 -3.3794e-05 -0.00186423
-0.0164552 -3.60832e-05 -0.00244339
-0.0142364 -2.35172e-05 -0.0028317
-0.0112639 -2.61408e-05 -0.00326074
-0.00853422 -8.12322e-06 -0.00327538
-0.00510594 -1.52307e-05 -0.00331027
-0.00279633 1.99019e-06 -0.00249614
-8.10141e-05 -1.53178e-05 -0.00185272
0 0 0
0 0 0
-6.43198e-05 -3.68306e-05 0.0016255
-0.00255124 -6.01744e-05 0.00225024
-0.00469471 -5.76821e-05 0.00297275
-0.00785386 -6.11103e-05 0.00300009
-0.0104419 -5.12792e-05 0.00301996
-0.0132727 -4.98361e-05 0.00271421
-0.0155073 -4.10318e-05 0.00242456
-0.0176088 -3.91698e-05 0.00197127
-0.0191451 -3.29307e-05 0.00152824
-0.0203293 -3.1963e-05 0.000986235
-0.0209792 -2.77073e-05 0.000454705
-0.0211267 -2.77239e-05 -0.000144479
-0.0207874 -2.40237e-05 -0.000711343
-0.0198334 -2.45382e-05 -0.00132965
-0.018494 -1.95827e-05 -0.00186284
-0.0164524 -2.00877e-05 -0.00244178
-0.0142334 -1.23426e-05 -0.00282894
-0.0112586 -1.32066e-05 -0.00325809
-0.00852974 -2.88384e-06 -0.00327138
-0.0051011 -6.59398e-06 -0.00330699
-0.00279408 2.49694e-06 -0.00249185
-8.13341e-05 -7.06184e-06 -0.00185074