# vtk DataFile Version 3.0
CFD lid driven cavity 3D
ASCII
DATASET STRUCTURED_POINTS
DIMENSIONS 25 25 25
ORIGIN 0 0 0
SPACING 0.0416667 0.0416667 0.0416667
CELL_DATA 13824
VECTORS velocity double
0 0 0
0 0 0
0 0 0
0 0 0
0 0 0
0 0 0
0 0 0
0 0 0
0 0 0
0 0 0
0 0 0
0 0 0
0 0 0
0 0 0
0 0 0
0 0 0
0 0 0
0 0 0
0 0 0
0 0 0
0 0 0
0 0 0
0 0 0
0 0 0
0 0 0
0 0 0
0 0 0
0 0 0
0 0 0
0 0 0
0 0 0
0 0 0
0 0 0
0 0 0
0 0 0
0 0 0
0 0 0
0 0 0
0 0 0
0 0 0
0 0 0
0 0 0
0 0 0
0 0 0
0 0 0
0 0 0
0 0 0
0 0 0
0 0 0
0 0 0
0 0 0
0 0 0
0 0 0
0 0 0
0 0 0
0 0 0
0 0 0
0 0 0
0 0 0
0 0 0
0 0 0
0 0 0
0 0 0
0 0 0
0 0 0
0 0 0
0 0 0
0 0 0
0 0 0
0 0 0
0 0 0
0 0 0
0 0 0
0 0 0
0 0 0
0 0 0
0 0 0
0 0 0
0 0 0
0 0 0
0 0 0
0 0 0
0 0 0
0 0 0
0 0 0
0 0 0
0 0 0
0 0 0
0 0 0
0 0 0
0 0 0
0 0 0
0 0 0
0 0 0
0 0 0
0 0 0
0 0 0
0 0 0
0 0 0
0 0 0
0 0 0
0 0 0
0 0 0
0 0 0
0 0 0
0 0 0
0 0 0
0 0 0
0 0 0
0 0 0
0 0 0
0 0 0
0 0 0
0 0 0
0 0 0
0 0 0
0 0 0
0 0 0
0 0 0
0 0 0
0 0 0
0 0 0
0 0 0
0 0 0
0 0 0
0 0 0
0 0 0
0 0 0
0 0 0
0 0 0
0 0 0
0 0 0
0 0 0
0 0 0
0 0 0
0 0 0
0 0 0
0 0 0
0 0 0
0 0 0
0 0 0
0 0 0
0 0 0
0 0 0
0 0 0
0 0 0
0 0 0
0 0 0
0 0 0
0 0 0
0 0 0
0 0 0
0 0 0
0 0 0
0 0 0
0 0 0
0 0 0
0 0 0
0 0 0
0 0 0
0 0 0
0 0 0
0 0 0
0 0 0
0 0 0
0 0 0
0 0 0
0 0 0
0 0 0
0 0 0
0 0 0
0 0 0
0 0 0
0 0 0
0 0 0
0 0 0
0 0 0
0 0 0
0 0 0
0 0 0
0 0 0
0 0 0
0 0 0
0 0 0
0 0 0
0 0 0
0 0 0
0 0 0
0 0 0
0 0 0
0 0 0
0 0 0
0 0 0
0 0 0
0 0 0
0 0 0
0 0 0
0 0 0
0 0 0
0 0 0
0 0 0
0 0 0
0 0 0
0 0 0
0 0 0
0 0 0
0 0 0
0 0 0
0 0 0
0 0 0
0 0 0
0 0 0
0 0 0
0 0 0
0 0 0
0 0 0
0 0 0
0 0 0
0 0 0
0 0 0
0 0 0
0 0 0
0 0 0
0 0 0
0 0 0
0 0 0
0 0 0
0 0 0
0 0 0
0 0 0
0 0 0
0 0 0
0 0 0
0 0 0
0 0 0
0 0 0
0 0 0
0 0 0
0 0 0
0 0 0
0 0 0
0 0 0
0 0 0
0 0 0
0 0 0
0 0 0
0 0 0
0 0 0
0 0 0
0 0 0
0 0 0
0 0 0
0 0 0
0 0 0
0 0 0
0 0 0
0 0 0
0 0 0
0 0 0
0 0 0
0 0 0
0 0 0
0 0 0
0 0 0
0 0 0
0 0 0
0 0 0
0 0 0
0 0 0
0 0 0
0 0 0
0 0 0
0 0 0
0 0 0
0 0 0
0 0 0
0 0 0
0 0 0
0 0 0
0 0 0
0 0 0
0 0 0
0 0 0
0 0 0
0 0 0
0 0 0
0 0 0
0 0 0
0 0 0
0 0 0
0 0 0
0 0 0
0 0 0
0 0 0
0 0 0
0 0 0
0 0 0
0 0 0
0 0 0
0 0 0
0 0 0
0 0 0
0 0 0
0 0 0
0 0 0
0 0 0
0 0 0
0 0 0
0 0 0
0 0 0
0 0 0
0 0 0
0 0 0
0 0 0
0 0 0
0 0 0
0 0 0
0 0 0
0 0 0
0 0 0
0 0 0
0 0 0
0 0 0
0 0 0
0 0 0
0 0 0
0 0 0
0 0 0
0 0 0
0 0 0
0 0 0
0 0 0
0 0 0
0 0 0
0 0 0
0 0 0
0 0 0
0 0 0
0 0 0
0 0 0
0 0 0
0 0 0
0 0 0
0 0 0
0 0 0
0 0 0
0 0 0
0 0 0
0 0 0
0 0 0
0 0 0
0 0 0
0 0 0
0 0 0
0 0 0
0 0 0
0 0 0
0 0 0
0 0 0
0 0 0
0 0 0
0 0 0
0 0 0
0 0 0
0 0 0
0 0 0
0 0 0
0 0 0
0 0 0
0 0 0
0 0 0
0 0 0
0 0 0
0 0 0
0 0 0
0 0 0
0 0 0
0 0 0
0 0 0
0 0 0
0 0 0
0 0 0
0 0 0
0 0 0
0 0 0
0 0 0
0 0 0
0 0 0
0 0 0
0 0 0
0 0 0
0 0 0
0 0 0
0 0 0
0 0 0
0 0 0
0 0 0
0 0 0
0 0 0
0 0 0
0 0 0
0 0 0
0 0 0
0 0 0
0 0 0
0 0 0
0 0 0
0 0 0
0 0 0
0 0 0
0 0 0
0 0 0
0 0 0
0 0 0
0 0 0
0 0 0
0 0 0
0 0 0
0 0 0
0 0 0
0 0 0
0 0 0
0 0 0
0 0 0
0 0 0
0 0 0
0 0 0
0 0 0
0 0 0
0 0 0
0 0 0
0 0 0
0 0 0
0 0 0
0 0 0
0 0 0
0 0 0
0 0 0
0 0 0
0 0 0
0 0 0
0 0 0
0 0 0
0 0 0
0 0 0
0 0 0
0 0 0
0 0 0
0 0 0
0 0 0
0 0 0
0 0 0
0 0 0
0 0 0
0 0 0
0 0 0
0 0 0
0 0 0
0 0 0
0 0 0
0 0 0
0 0 0
0 0 0
0 0 0
0 0 0
0 0 0
0 0 0
0 0 0
0 0 0
0 0 0
0 0 0
0 0 0
0 0 0
0 0 0
0 0 0
0 0 0
0 0 0
0 0 0
0 0 0
0 0 0
0 0 0
0 0 0
0 0 0
0 0 0
0 0 0
0 0 0
0 0 0
0 0 0
0 0 0
0 0 0
0 0 0
0 0 0
0 0 0
0 0 0
0 0 0
0 0 0
0 0 0
0 0 0
0 0 0
0 0 0
0 0 0
0 0 0
0 0 0
0 0 0
0 0 0
0 0 0
0 0 0
0 0 0
0 0 0
0 0 0
0 0 0
0 0 0
0 0 0
0 0 0
0 0 0
0 0 0
0 0 0
0 0 0
0 0 0
0 0 0
0 0 0
0 0 0
0 0 0
0 0 0
0 0 0
0 0 0
0 0 0
0 0 0
0 0 0
0 0 0
0 0 0
0 0 0
0 0 0
0 0 0
0 0 0
0 0 0
0 0 0
0 0 0
0 0 0
0 0 0
0 0 0
0 0 0
0 0 0
0 0 0
0 0 0
0 0 0
0 0 0
0 0 0
0 0 0
0 0 0
0 0 0
0 0 0
0 0 0
0 0 0
0 0 0
0 0 0
0 0 0
0 0 0
0 0 0
0 0 0
0 0 0
0 0 0
0 0 0
0 0 0
0 0 0
0 0 0
0 0 0
0 0 0
0 0 0
0 0 0
0 0 0
0 0 0
0 0 0
0 0 0
0 0 0
0 0 0
0 0 0
0 0 0
0 0 0
0 0 0
0 0 0
0 0 0
0 0 0
0 0 0
0 0 0
0 0 0
0 0 0
0 0 0
0 0 0
0 0 0
0 0 0
0 0 0
0 0 0
0 0 0
0 0 0
0 0 0
0 0 0
0 0 0
0 0 0
0 0 0
0 0 0
-0.000184807 7.89883e-06 0.000187778
-0.000968864 -9.69007e-05 5.92417e-05
-0.00142961 -9.75158e-06 0.000152986
-0.00213261 -6.40725e-05 8.31331e-05
-0.00260707 -2.18435e-05 0.000118573
-0.00316125 -4.44701e-05 7.76763e-05
-0.00355799 -2.12895e-05 8.46806e-05
-0.00394209 -2.80392e-05 5.60449e-05
-0.00420323 -1.33871e-05 4.91521e-05
-0.00440179 -1.29602e-05 2.52129e-05
-0.00449506 -1.50054e-06 1.25726e-05
-0.004499 9.77734e-07 -1.02864e-05
-0.00441331 1.24675e-05 -2.30666e-05
-0.00422137 1.29006e-05 -4.73518e-05
-0.0039655 2.76553e-05 -5.45974e-05
-0.00358455 2.08689e-05 -8.38917e-05
-0.00318919 4.42777e-05 -7.7236e-05
-0.0026334 2.14482e-05 -0.000119084
-0.00215626 6.4174e-05 -8.35873e-05
-0.00144689 9.23703e-06 -0.000154787
-0.000981112 9.75476e-05 -5.98924e-05
-0.000187742 -8.62966e-06 -0.000190527
0 0 0
0 0 0
-0.000171803 9.82321e-07 0.00017433
-0.00116437 -4.80732e-05 4.30622e-05
-0.00174056 -6.96037e-06 0.000134617
-0.00259354 -2.41794e-05 6.92117e-05
-0.00318527 -5.73224e-06 0.000103024
-0.00385393 -1.36596e-05 6.62675e-05
-0.00434445 -4.634e-06 7.34384e-05
-0.0048081 -7.7495e-06 4.81252e-05
-0.00512904 -2.74224e-06 4.26262e-05
-0.00536877 -3.61918e-06 2.16082e-05
-0.00548281 -1.40433e-07 1.09296e-05
-0.00548718 -3.95262e-07 -9.10354e-06
-0.00538159 3.06233e-06 -1.99076e-05
-0.00514922 2.12311e-06 -4.124e-05
-0.00483413 7.08266e-06 -4.70543e-05
-0.004374 3.84851e-06 -7.29647e-05
-0.00388497 1.28502e-05 -6.61002e-05
-0.00321453 4.75192e-06 -0.000103717
-0.00261972 2.32995e-05 -6.98277e-05
-0.00175961 5.84243e-06 -0.000136467
-0.00117772 4.73814e-05 -4.3753e-05
-0.000174294 -2.07805e-06 -0.0001771
0 0 0
0 0 0
-0.000178559 2.85648e-06 0.000183397
-0.00120145 -4.34909e-05 3.75125e-05
-0.00178814 -6.75637e-06 0.000140132
-0.00267483 -3.0951e-05 6.51202e-05
-0.00327489 -9.32702e-06 0.000105427
-0.00396833 -2.07841e-05 6.36294e-05
-0.00446728 -8.66731e-06 7.42758e-05
-0.00494692 -1.27841e-05 4.6556e-05
-0.00527419 -5.39533e-06 4.29267e-05
-0.00552176 -6.0016e-06 2.07806e-05
-0.00563815 -4.96701e-07 1.13124e-05
-0.00564255 -9.73314e-08 -9.47119e-06
-0.00553466 5.40082e-06 -1.90538e-05
-0.00529448 4.75483e-06 -4.15103e-05
-0.00497313 1.21367e-05 -4.54201e-05
-0.004497 7.93101e-06 -7.37441e-05
-0.00399961 2.00856e-05 -6.33376e-05
-0.00330431 8.46001e-06 -0.000106047
-0.00270127 3.02514e-05 -6.55469e-05
-0.00180727 5.74458e-06 -0.000141938
-0.00121497 4.2885e-05 -3.79752e-05
-0.000181208 -3.91409e-06 -0.000186188
0 0 0
0 0 0
-0.000178625 -6.31415e-07 0.000182148
-0.00120464 -2.38261e-05 3.48091e-05
-0.00178931 -4.85791e-06 0.00013884
-0.00268293 -1.64573e-05 6.3482e-05
-0.00328366 -4.35357e-06 0.000104533
-0.00398202 -1.01817e-05 6.2692e-05
-0.00448221 -3.34533e-06 7.37843e-05
-0.00496485 -5.87179e-06 4.60363e-05
-0.00529308 -1.91625e-06 4.27156e-05
-0.00554208 -2.82777e-06 2.05279e-05
-0.00565882 -9.65764e-08 1.13067e-05
-0.00566324 -5.48736e-07 -9.5244e-06
-0.00555503 2.16637e-06 -1.88603e-05
-0.00531344 1.20593e-06 -4.13648e-05
-0.00499115 5.12558e-06 -4.49654e-05
-0.00451202 2.50606e-06 -7.33289e-05
-0.00401339 9.32404e-06 -6.24709e-05
-0.00331314 3.36201e-06 -0.000105238
-0.00270942 1.55243e-05 -6.3976e-05
-0.00180843 3.74157e-06 -0.000140729
-0.00121817 2.29055e-05 -3.53142e-05
-0.000181235 -4.56947e-07 -0.000185011
0 0 0
0 0 0
-0.000182099 -1.16439e-07 0.00018658
-0.00120712 -1.83711e-05 3.43732e-05
-0.0017883 -4.08637e-06 0.000142561
-0.00268528 -1.50153e-05 6.35239e-05
-0.00328235 -4.78961e-06 0.000107082
-0.00398356 -1.04615e-05 6.29639e-05
-0.00448134 -4.16152e-06 7.53535e-05
-0.00496564 -6.47415e-06 4.62943e-05
-0.00529265 -2.53607e-06 4.35704e-05
-0.00554236 -3.1442e-06 2.0579e-05
-0.00565875 -2.48774e-07 1.16495e-05
-0.00566317 -3.61329e-07 -9.8327e-06
-0.00555533 2.52286e-06 -1.88751e-05
-0.00531303 1.8775e-06 -4.2188e-05
-0.00499199 5.7914e-06 -4.51848e-05
-0.00451119 3.40477e-06 -7.48733e-05
-0.004015 9.69619e-06 -6.27006e-05
-0.00331186 3.90925e-06 -0.000107776
-0.00271184 1.41849e-05 -6.39711e-05
-0.00180744 3.08742e-06 -0.000144464
-0.00122071 1.75155e-05 -3.48306e-05
-0.000184785 -8.70352e-07 -0.000189477
0 0 0
0 0 0
-0.000183079 -1.56075e-06 0.000186864
-0.00120715 -1.17505e-05 3.3441e-05
-0.00178658 -3.53034e-06 0.000142881
-0.00268475 -9.59611e-06 6.30088e-05
-0.00328053 -3.27353e-06 0.00010741
-0.00398306 -6.55349e-06 6.27545e-05
-0.00448012 -2.49823e-06 7.56465e-05
-0.00496531 -3.97256e-06 4.62277e-05
-0.00529197 -1.43689e-06 4.37801e-05
-0.0055421 -1.97843e-06 2.05222e-05
-0.0056584 -1.60408e-07 1.17587e-05
-0.00566283 -4.32414e-07 -9.96208e-06
-0.0055551 1.37345e-06 -1.88382e-05
-0.00531239 7.96978e-07 -4.24219e-05
-0.00499171 3.30421e-06 -4.51406e-05
-0.00451001 1.76425e-06 -7.51978e-05
-0.00401456 5.7977e-06 -6.25159e-05
-0.00331008 2.42639e-06 -0.000108143
-0.00271136 8.76516e-06 -6.3479e-05
-0.00180574 2.5849e-06 -0.000144827
-0.00122076 1.08856e-05 -3.39124e-05
-0.000185769 6.49185e-07 -0.000189804
0 0 0
0 0 0
-0.000184262 -1.20089e-06 0.000188465
-0.00120786 -8.56142e-06 3.32423e-05
-0.00178609 -2.83806e-06 0.000144277
-0.00268511 -7.5919e-06 6.29741e-05
-0.00327943 -2.94515e-06 0.000108414
-0.00398293 -5.57758e-06 6.28006e-05
-0.00447893 -2.41991e-06 7.62812e-05
-0.00496476 -3.5533e-06 4.62772e-05
-0.00529085 -1.45724e-06 4.41341e-05
-0.00554128 -1.78685e-06 2.05054e-05
-0.00565741 -2.07715e-07 1.19159e-05
-0.00566184 -3.00724e-07 -1.01083e-05
-0.00555431 1.26871e-06 -1.88097e-05
-0.0053113 9.11589e-07 -4.2767e-05
-0.0049912 2.9845e-06 -4.51781e-05
-0.00450886 1.79892e-06 -7.58278e-05
-0.00401448 4.93689e-06 -6.25498e-05
-0.00330902 2.2308e-06 -0.00010915
-0.00271176 6.88385e-06 -6.34317e-05
-0.00180528 2.03793e-06 -0.000146235
-0.00122151 7.81284e-06 -3.37017e-05
-0.000186981 4.27157e-07 -0.000191426
0 0 0
0 0 0
-0.000184822 -1.53036e-06 0.000188699
-0.00120792 -5.82014e-06 3.28112e-05
-0.00178553 -2.41435e-06 0.000144528
-0.00268486 -5.15152e-06 6.27e-05
-0.00327852 -2.22592e-06 0.000108646
-0.00398255 -3.77221e-06 6.2664e-05
-0.00447811 -1.70202e-06 7.64691e-05
-0.00496436 -2.39288e-06 4.62175e-05
-0.00529021 -9.94175e-07 4.42638e-05
-0.00554087 -1.22106e-06 2.04582e-05
-0.00565693 -1.68386e-07 1.19889e-05
-0.00566136 -2.59908e-07 -1.01897e-05
-0.00555391 7.8449e-07 -1.87706e-05
-0.00531069 5.35366e-07 -4.2907e-05
-0.00499083 1.91384e-06 -4.51271e-05
-0.00450808 1.18179e-06 -7.60293e-05
-0.00401414 3.23245e-06 -6.24224e-05
-0.00330815 1.63095e-06 -0.000109399
-0.00271155 4.55411e-06 -6.31656e-05
-0.00180474 1.75337e-06 -0.000146506
-0.00122159 5.18919e-06 -3.32755e-05
-0.000187547 8.97569e-07 -0.000191681
0 0 0
0 0 0
-0.000185228 -1.03446e-06 0.000189268
-0.00120814 -3.83069e-06 3.27133e-05
-0.00178537 -1.67536e-06 0.000145041
-0.00268492 -3.53014e-06 6.26623e-05
-0.00327805 -1.63448e-06 0.000109029
-0.00398241 -2.69819e-06 6.26576e-05
-0.00447755 -1.30791e-06 7.67197e-05
-0.00496405 -1.76758e-06 4.62168e-05
-0.00528967 -7.87898e-07 4.44081e-05
-0.00554046 -9.09373e-07 2.04375e-05
-0.00565645 -1.45446e-07 1.2059e-05
-0.00566089 -1.66617e-07 -1.02566e-05
-0.00555351 5.91316e-07 -1.87463e-05
-0.00531017 4.54066e-07 -4.30492e-05
-0.00499055 1.41886e-06 -4.51231e-05
-0.00450754 9.299e-07 -7.62801e-05
-0.00401403 2.30491e-06 -6.2413e-05
-0.0033077 1.20193e-06 -0.000109786
-0.00271164 3.09294e-06 -6.31253e-05
-0.0018046 1.19349e-06 -0.000147027
-0.00122183 3.36586e-06 -3.31754e-05
-0.000187965 5.72462e-07 -0.000192261
0 0 0
0 0 0
-0.000185457 -8.08814e-07 0.000189371
-0.00120817 -2.21988e-06 3.25445e-05
-0.0017852 -1.11343e-06 0.000145151
-0.00268482 -2.02683e-06 6.25455e-05
-0.00327769 -1.01142e-06 0.000109129
-0.00398222 -1.53533e-06 6.25918e-05
-0.00447718 -7.70461e-07 7.67994e-05
-0.00496384 -9.97722e-07 4.61832e-05
-0.00528936 -4.53201e-07 4.44633e-05
-0.00554023 -5.14955e-07 2.04122e-05
-0.00565619 -9.12064e-08 1.20925e-05
-0.00566063 -1.04625e-07 -1.0293e-05
-0.00555329 3.15401e-07 -1.87238e-05
-0.00530986 2.44038e-07 -4.31081e-05
-0.00499035 7.7924e-07 -4.50925e-05
-0.00450719 5.34357e-07 -7.63649e-05
-0.00401387 1.28937e-06 -6.23504e-05
-0.00330736 7.42416e-07 -0.000109893
-0.00271155 1.75388e-06 -6.30114e-05
-0.00180444 8.15325e-07 -0.000147145
-0.00122187 1.93056e-06 -3.30087e-05
-0.000188198 5.24499e-07 -0.000192373
0 0 0
0 0 0
-0.000185557 -1.97041e-07 0.000189511
-0.00120822 -6.83774e-07 3.25149e-05
-0.00178515 -3.16055e-07 0.000145281
-0.00268482 -6.46245e-07 6.25315e-05
-0.00327755 -3.16855e-07 0.00010923
-0.00398217 -5.10434e-07 6.25862e-05
-0.00447701 -2.60617e-07 7.68662e-05
-0.00496374 -3.43559e-07 4.61799e-05
-0.00528919 -1.60602e-07 4.45026e-05
-0.0055401 -1.79276e-07 2.04044e-05
-0.00565604 -3.22444e-08 1.21126e-05
-0.00566048 -3.15413e-08 -1.03124e-05
-0.00555316 1.14237e-07 -1.87152e-05
-0.0053097 9.23644e-08 -4.31472e-05
-0.00499026 2.72152e-07 -4.50885e-05
-0.00450703 1.83297e-07 -7.64321e-05
-0.00401382 4.29656e-07 -6.23444e-05
-0.00330723 2.28253e-07 -0.000109995
-0.00271156 5.56009e-07 -6.29971e-05
-0.0018044 2.17184e-07 -0.000147278
-0.00122192 5.87399e-07 -3.2979e-05
-0.000188301 1.02272e-07 -0.000192517
0 0 0
0 0 0
-0.000185557 1.97041e-07 0.000189511
-0.00120822 6.83774e-07 3.25149e-05
-0.00178515 3.16055e-07 0.000145281
-0.00268482 6.46245e-07 6.25315e-05
-0.00327755 3.16855e-07 0.00010923
-0.00398217 5.10434e-07 6.25862e-05
-0.00447701 2.60617e-07 7.68662e-05
-0.00496374 3.43559e-07 4.61799e-05
-0.00528919 1.60602e-07 4.45026e-05
-0.0055401 1.79276e-07 2.04044e-05
-0.00565604 3.22444e-08 1.21126e-05
-0.00566048 3.15413e-08 -1.03124e-05
-0.00555316 -1.14237e-07 -1.87152e-05
-0.0053097 -9.23644e-08 -4.31472e-05
-0.00499026 -2.72152e-07 -4.50885e-05
-0.00450703 -1.83297e-07 -7.64321e-05
-0.00401382 -4.29656e-07 -6.23444e-05
-0.00330723 -2.28253e-07 -0.000109995
-0.00271156 -5.56009e-07 -6.29971e-05
-0.0018044 -2.17184e-07 -0.000147278
-0.00122192 -5.87399e-07 -3.2979e-05
-0.000188301 -1.02272e-07 -0.000192517
0 0 0
0 0 0
-0.000185457 8.08814e-07 0.000189371
-0.00120817 2.21988e-06 3.25445e-05
-0.0017852 1.11343e-06 0.000145151
-0.00268482 2.02683e-06 6.25455e-05
-0.00327769 1.01142e-06 0.000109129
-0.00398222 1.53533e-06 6.25918e-05
-0.00447718 7.70461e-07 7.67994e-05
-0.00496384 9.97722e-07 4.61832e-05
-0.00528936 4.53201e-07 4.44633e-05
-0.00554023 5.14955e-07 2.04122e-05
-0.00565619 9.12064e-08 1.20925e-05
-0.00566063 1.04625e-07 -1.0293e-05
-0.00555329 -3.15401e-07 -1.87238e-05
-0.00530986 -2.44038e-07 -4.31081e-05
-0.00499035 -7.7924e-07 -4.50925e-05
-0.00450719 -5.34357e-07 -7.63649e-05
-0.00401387 -1.28937e-06 -6.23504e-05
-0.00330736 -7.42416e-07 -0.000109893
-0.00271155 -1.75388e-06 -6.30114e-05
-0.00180444 -8.15325e-07 -0.000147145
-0.00122187 -1.93056e-06 -3.30087e-05
-0.000188198 -5.24499e-07 -0.000192373
0 0 0
0 0 0
-0.000185228 1.03446e-06 0.000189268
-0.00120814 3.83069e-06 3.27133e-05
-0.00178537 1.67536e-06 0.000145041
-0.00268492 3.53014e-06 6.26623e-05
-0.00327805 1.63448e-06 0.000109029
-0.00398241 2.69819e-06 6.26576e-05
-0.00447755 1.30791e-06 7.67197e-05
-0.00496405 1.76758e-06 4.62168e-05
-0.00528967 7.87898e-07 4.44081e-05
-0.00554046 9.09373e-07 2.04375e-05
-0.00565645 1.45446e-07 1.2059e-05
-0.00566089 1.66617e-07 -1.02566e-05
-0.00555351 -5.91316e-07 -1.87463e-05
-0.00531017 -4.54066e-07 -4.30492e-05
-0.00499055 -1.41886e-06 -4.51231e-05
-0.00450754 -9.299e-07 -7.62801e-05
-0.00401403 -2.30491e-06 -6.2413e-05
-0.0033077 -1.20193e-06 -0.000109786
-0.00271164 -3.09294e-06 -6.31253e-05
-0.0018046 -1.19349e-06 -0.000147027
-0.00122183 -3.36586e-06 -3.31754e-05
-0.000187965 -5.72462e-07 -0.000192261
0 0 0
0 0 0
-0.000184822 1.53036e-06 0.000188699
-0.00120792 5.82014e-06 3.28112e-05
-0.00178553 2.41435e-06 0.000144528
-0.00268486 5.15152e-06 6.27e-05
-0.00327852 2.22592e-06 0.000108646
-0.00398255 3.77221e-06 6.2664e-05
-0.00447811 1.70202e-06 7.64691e-05
-0.00496436 2.39288e-06 4.62175e-05
-0.00529021 9.94175e-07 4.42638e-05
-0.00554087 1.22106e-06 2.04582e-05
-0.00565693 1.68386e-07 1.19889e-05
-0.00566136 2.59908e-07 -1.01897e-05
-0.00555391 -7.8449e-07 -1.87706e-05
-0.00531069 -5.35366e-07 -4.2907e-05
-0.00499083 -1.91384e-06 -4.51271e-05
-0.00450808 -1.18179e-06 -7.60293e-05
-0.00401414 -3.23245e-06 -6.24224e-05
-0.00330815 -1.63095e-06 -0.000109399
-0.00271155 -4.55411e-06 -6.31656e-05
-0.00180474 -1.75337e-06 -0.000146506
-0.00122159 -5.18919e-06 -3.32755e-05
-0.000187547 -8.97569e-07 -0.000191681
0 0 0
0 0 0
-0.000184262 1.20089e-06 0.000188465
-0.00120786 8.56142e-06 3.32423e-05
-0.00178609 2.83806e-06 0.000144277
-0.00268511 7.5919e-06 6.29741e-05
-0.00327943 2.94515e-06 0.000108414
-0.00398293 5.57758e-06 6.28006e-05
-0.00447893 2.41991e-06 7.62812e-05
-0.00496476 3.5533e-06 4.62772e-05
-0.00529085 1.45724e-06 4.41341e-05
-0.00554128 1.78685e-06 2.05054e-05
-0.00565741 2.07715e-07 1.19159e-05
-0.00566184 3.00724e-07 -1.01083e-05
-0.00555431 -1.26871e-06 -1.88097e-05
-0.0053113 -9.11589e-07 -4.2767e-05
-0.0049912 -2.9845e-06 -4.51781e-05
-0.00450886 -1.79892e-06 -7.58278e-05
-0.00401448 -4.93689e-06 -6.25498e-05
-0.00330902 -2.2308e-06 -0.00010915
-0.00271176 -6.88385e-06 -6.34317e-05
-0.00180528 -2.03793e-06 -0.000146235
-0.00122151 -7.81284e-06 -3.37017e-05
-0.000186981 -4.27157e-07 -0.000191426
0 0 0
0 0 0
-0.000183079 1.56075e-06 0.000186864
-0.00120715 1.17505e-05 3.3441e-05
-0.00178658 3.53034e-06 0.000142881
-0.00268475 9.59611e-06 6.30088e-05
-0.00328053 3.27353e-06 0.00010741
-0.00398306 6.55349e-06 6.27545e-05
-0.00448012 2.49823e-06 7.56465e-05
-0.00496531 3.97256e-06 4.62277e-05
-0.00529197 1.43689e-06 4.37801e-05
-0.0055421 1.97843e-06 2.05222e-05
-0.0056584 1.60408e-07 1.17587e-05
-0.00566283 4.32414e-07 -9.96208e-06
-0.0055551 -1.37345e-06 -1.88382e-05
-0.00531239 -7.96978e-07 -4.24219e-05
-0.00499171 -3.30421e-06 -4.51406e-05
-0.00451001 -1.76425e-06 -7.51978e-05
-0.00401456 -5.7977e-06 -6.25159e-05
-0.00331008 -2.42639e-06 -0.000108143
-0.00271136 -8.76516e-06 -6.3479e-05
-0.00180574 -2.5849e-06 -0.000144827
-0.00122076 -1.08856e-05 -3.39124e-05
-0.000185769 -6.49185e-07 -0.000189804
0 0 0
0 0 0
-0.000182099 1.16439e-07 0.00018658
-0.00120712 1.83711e-05 3.43732e-05
-0.0017883 4.08637e-06 0.000142561
-0.00268528 1.50153e-05 6.35239e-05
-0.00328235 4.78961e-06 0.000107082
-0.00398356 1.04615e-05 6.29639e-05
-0.00448134 4.16152e-06 7.53535e-05
-0.00496564 6.47415e-06 4.62943e-05
-0.00529265 2.53607e-06 4.35704e-05
-0.00554236 3.1442e-06 2.0579e-05
-0.00565875 2.48774e-07 1.16495e-05
-0.00566317 3.61329e-07 -9.8327e-06
-0.00555533 -2.52286e-06 -1.88751e-05
-0.00531303 -1.8775e-06 -4.2188e-05
-0.00499199 -5.7914e-06 -4.51848e-05
-0.00451119 -3.40477e-06 -7.48733e-05
-0.004015 -9.69619e-06 -6.27006e-05
-0.00331186 -3.90925e-06 -0.000107776
-0.00271184 -1.41849e-05 -6.39711e-05
-0.00180744 -3.08742e-06 -0.000144464
-0.00122071 -1.75155e-05 -3.48306e-05
-0.000184785 8.70352e-07 -0.000189477
0 0 0
0 0 0
-0.000178625 6.31415e-07 0.000182148
-0.00120464 2.38261e-05 3.48091e-05
-0.00178931 4.85791e-06 0.00013884
-0.00268293 1.64573e-05 6.3482e-05
-0.00328366 4.35357e-06 0.000104533
-0.00398202 1.01817e-05 6.2692e-05
-0.00448221 3.34533e-06 7.37843e-05
-0.00496485 5.87179e-06 4.60363e-05
-0.00529308 1.91625e-06 4.27156e-05
-0.00554208 2.82777e-06 2.05279e-05
-0.00565882 9.65764e-08 1.13067e-05
-0.00566324 5.48736e-07 -9.5244e-06
-0.00555503 -2.16637e-06 -1.88603e-05
-0.00531344 -1.20593e-06 -4.13648e-05
-0.00499115 -5.12558e-06 -4.49654e-05
-0.00451202 -2.50606e-06 -7.33289e-05
-0.00401339 -9.32404e-06 -6.24709e-05
-0.00331314 -3.36201e-06 -0.000105238
-0.00270942 -1.55243e-05 -6.3976e-05
-0.00180843 -3.74157e-06 -0.000140729
-0.00121817 -2.29055e-05 -3.53142e-05
-0.000181235 4.56947e-07 -0.000185011
0 0 0
0 0 0
-0.000178559 -2.85648e-06 0.000183397
-0.00120145 4.34909e-05 3.75125e-05
-0.00178814 6.75637e-06 0.000140132
-0.00267483 3.0951e-05 6.51202e-05
-0.00327489 9.32702e-06 0.000105427
-0.00396833 2.07841e-05 6.36294e-05
-0.00446728 8.66731e-06 7.42758e-05
-0.00494692 1.27841e-05 4.6556e-05
-0.00527419 5.39533e-06 4.29267e-05
-0.00552176 6.0016e-06 2.07806e-05
-0.00563815 4.96701e-07 1.13124e-05
-0.00564255 9.73314e-08 -9.47119e-06
-0.00553466 -5.40082e-06 -1.90538e-05
-0.00529448 -4.75483e-06 -4.15103e-05
-0.00497313 -1.21367e-05 -4.54201e-05
-0.004497 -7.93101e-06 -7.37441e-05
-0.00399961 -2.00856e-05 -6.33376e-05
-0.00330431 -8.46001e-06 -0.000106047
-0.00270127 -3.02514e-05 -6.55469e-05
-0.00180727 -5.74458e-06 -0.000141938
-0.00121497 -4.2885e-05 -3.79752e-05
-0.000181208 3.91409e-06 -0.000186188
0 0 0
0 0 0
-0.000171803 -9.82321e-07 0.00017433
-0.00116437 4.80732e-05 4.30622e-05
-0.00174056 6.96037e-06 0.000134617
-0.00259354 2.41794e-05 6.92117e-05
-0.00318527 5.73224e-06 0.000103024
-0.00385393 1.36596e-05 6.62675e-05
-0.00434445 4.634e-06 7.34384e-05
-0.0048081 7.7495e-06 4.81252e-05
-0.00512904 2.74224e-06 4.26262e-05
-0.00536877 3.61918e-06 2.16082e-05
-0.00548281 1.40433e-07 1.09296e-05
-0.00548718 3.95262e-07 -9.10354e-06
-0.00538159 -3.06233e-06 -1.99076e-05
-0.00514922 -2.12311e-06 -4.124e-05
-0.00483413 -7.08266e-06 -4.70543e-05
-0.004374 -3.84851e-06 -7.29647e-05
-0.00388497 -1.28502e-05 -6.61002e-05
-0.00321453 -4.75192e-06 -0.000103717
-0.00261972 -2.32995e-05 -6.98277e-05
-0.00175961 -5.84243e-06 -0.000136467
-0.00117772 -4.73814e-05 -4.3753e-05
-0.000174294 2.07805e-06 -0.0001771
0 0 0
0 0 0
-0.000184807 -7.89883e-06 0.000187778
-0.000968864 9.69007e-05 5.92417e-05
-0.00142961 9.75158e-06 0.000152986
-0.00213261 6.40725e-05 8.31331e-05
-0.00260707 2.18435e-05 0.000118573
-0.00316125 4.44701e-05 7.76763e-05
-0.00355799 2.12895e-05 8.46806e-05
-0.00394209 2.80392e-05 5.60449e-05
-0.00420323 1.33871e-05 4.91521e-05
-0.00440179 1.29602e-05 2.52129e-05
-0.00449506 1.50054e-06 1.25726e-05
-0.004499 -9.77734e-07 -1.02864e-05
-0.00441331 -1.24675e-05 -2.30666e-05
-0.00422137 -1.29006e-05 -4.73518e-05
-0.0039655 -2.76553e-05 -5.45974e-05
-0.00358455 -2.08689e-05 -8.38917e-05
-0.00318919 -4.42777e-05 -7.7236e-05
-0.0026334 -2.14482e-05 -0.000119084
-0.00215626 -6.4174e-05 -8.35873e-05
-0.00144689 -9.23703e-06 -0.000154787
-0.000981112 -9.75476e-05 -5.98924e-05
-0.000187742 8.62966e-06 -0.000190527
0 0 0
0 0 0
0 0 0
0 0 0
0 0 0
0 0 0
0 0 0
0 0 0
0 0 0
0 0 0
0 0 0
0 0 0
0 0 0
0 0 0
0 0 0
0 0 0
0 0 0
0 0 0
0 0 0
0 0 0
0 0 0
0 0 0
0 0 0
0 0 0
0 0 0
0 0 0
0 0 0
0 0 0
0 0 0
0 0 0
0 0 0
0 0 0
0 0 0
0 0 0
0 0 0
0 0 0
0 0 0
0 0 0
0 0 0
0 0 0
0 0 0
0 0 0
0 0 0
0 0 0
0 0 0
0 0 0
0 0 0
0 0 0
0 0 0
0 0 0
-9.22997e-05 9.68989e-05 0.000990168
-0.00117163 -1.44954e-05 0.00107971
-0.00177458 8.10112e-05 0.00113297
-0.00268057 2.21099e-05 0.00103139
-0.00329887 5.87977e-05 0.000969462
-0.00399948 2.81292e-05 0.000839937
-0.0045097 4.04951e-05 0.000724052
-0.00499255 2.20413e-05 0.000572373
-0.00532553 2.31847e-05 0.000424104
-0.00557461 9.64648e-06 0.000257479
-0.00569301 6.33601e-06 9.34364e-05
-0.0056979 -5.93395e-06 -7.90922e-05
-0.00558897 -9.28178e-06 -0.000244183
-0.00534811 -2.29566e-05 -0.000412926
-0.00502174 -2.1891e-05 -0.00056402
-0.00454283 -4.06289e-05 -0.00071941
-0.00403437 -2.82616e-05 -0.000838958
-0.00333173 -5.94186e-05 -0.00097285
-0.00271003 -2.23995e-05 -0.0010378
-0.00179588 -8.21782e-05 -0.00114329
-0.00118652 1.45896e-05 -0.00109031
-9.46339e-05 -9.84417e-05 -0.00100219
0 0 0
0 0 0
-7.39459e-05 4.15654e-05 0.00118499
-0.00142535 -1.18433e-05 0.00131464
-0.00218622 3.65763e-05 0.00137376
-0.00329209 1.61313e-05 0.00125748
-0.00406679 3.36469e-05 0.00117693
-0.00491944 2.10836e-05 0.00102296
-0.00555373 2.55914e-05 0.000879128
-0.00614184 1.64102e-05 0.000696325
-0.00655368 1.51207e-05 0.000514504
-0.00685709 7.25016e-06 0.000312677
-0.00700284 3.64242e-06 0.000112321
-0.00700827 -3.93851e-06 -9.68637e-05
-0.00687306 -7.60286e-06 -0.000298419
-0.0065788 -1.56092e-05 -0.000502652
-0.00617429 -1.70414e-05 -0.000687708
-0.00559058 -2.64673e-05 -0.000874713
-0.0049582 -2.21025e-05 -0.00102276
-0.0041033 -3.49764e-05 -0.00118162
-0.0033247 -1.74434e-05 -0.00126571
-0.00220971 -3.82346e-05 -0.00138624
-0.00144156 1.0673e-05 -0.0013275
-7.56173e-05 -4.32108e-05 -0.00119902
0 0 0
0 0 0
-6.9987e-05 3.96082e-05 0.0012254
-0.00147285 -1.06682e-05 0.0013561
-0.0022508 3.22319e-05 0.00142183
-0.00340373 4.87982e-06 0.00129806
-0.00419461 2.59057e-05 0.0012173
-0.00508089 1.02564e-05 0.00105604
-0.00572998 1.8502e-05 0.000908794
-0.00633981 8.90233e-06 0.00071878
-0.00676201 1.07182e-05 0.000531677
-0.00707613 3.76431e-06 0.000322558
-0.0072256 2.92983e-06 0.000116056
-0.00723109 -3.32969e-06 -0.000100485
-0.00709225 -4.19744e-06 -0.000308202
-0.00678736 -1.12493e-05 -0.000519777
-0.00637259 -9.50996e-06 -0.000710154
-0.00576717 -1.93004e-05 -0.000904469
-0.00512007 -1.10999e-05 -0.00105596
-0.00423144 -2.70374e-05 -0.00122227
-0.00343674 -5.89084e-06 -0.00130654
-0.00227444 -3.36691e-05 -0.00143475
-0.00148929 9.70103e-06 -0.00136924
-7.17411e-05 -4.11208e-05 -0.00123988
0 0 0
0 0 0
-6.87758e-05 1.62659e-05 0.00122764
-0.00147751 -9.20224e-06 0.00135787
-0.0022538 1.31775e-05 0.00142494
-0.00341614 -1.55708e-07 0.00130059
-0.00420879 1.21581e-05 0.00122019
-0.00510163 4.25752e-06 0.0010584
-0.00575297 9.51329e-06 0.000911075
-0.00636681 4.33625e-06 0.000720467
-0.00679062 5.74262e-06 0.000533042
-0.00710666 1.76635e-06 0.000323273
-0.00725672 1.51185e-06 0.000116337
-0.00726222 -2.15862e-06 -0.000100878
-0.00712285 -2.44305e-06 -0.000309033
-0.00681607 -6.49924e-06 -0.000521269
-0.00639973 -5.16478e-06 -0.000711974
-0.00579029 -1.04888e-05 -0.000906906
-0.00514096 -5.29307e-06 -0.00105848
-0.00424571 -1.33904e-05 -0.00122535
-0.00344924 -1.03886e-06 -0.00130924
-0.00227743 -1.46142e-05 -0.00143807
-0.00149396 7.99904e-06 -0.00137116
-7.04612e-05 -1.76735e-05 -0.0012423
0 0 0
0 0 0
-6.9151e-05 1.25981e-05 0.00123103
-0.00147997 -7.44623e-06 0.00135841
-0.00225226 9.46856e-06 0.00142801
-0.0034198 -2.88231e-06 0.00130153
-0.00420907 7.62584e-06 0.00122259
-0.00510585 3.25007e-07 0.00105938
-0.00575516 5.53464e-06 0.000912732
-0.00637126 1.18173e-06 0.0007212
-0.00679411 3.25326e-06 0.000533989
-0.00711115 2.98971e-07 0.000323556
-0.00726095 9.70564e-07 0.000116627
-0.00726647 -1.60337e-06 -0.000101177
-0.00712739 -9.52694e-07 -0.000309325
-0.00681962 -3.96706e-06 -0.000522237
-0.00640427 -1.94457e-06 -0.000712727
-0.00579256 -6.41202e-06 -0.000908608
-0.00514529 -1.23869e-06 -0.0010595
-0.00424607 -8.7044e-06 -0.00122783
-0.00345301 1.84232e-06 -0.00131023
-0.00227593 -1.07286e-05 -0.00144126
-0.0014965 6.36008e-06 -0.00137175
-7.0896e-05 -1.38461e-05 -0.00124582
0 0 0
0 0 0
-6.93246e-05 4.68669e-06 0.00123049
-0.00147999 -6.59678e-06 0.00135684
-0.00225022 3.10787e-06 0.00142733
-0.00341954 -3.75212e-06 0.00130033
-0.00420755 2.88239e-06 0.00122207
-0.00510605 -1.24384e-06 0.00105858
-0.00575474 2.36748e-06 0.000912391
-0.00637197 -1.53673e-07 0.000720721
-0.00679457 1.48677e-06 0.000533818
-0.00711214 -2.64557e-07 0.000323319
-0.00726188 4.45387e-07 0.000116621
-0.00726741 -1.10033e-06 -0.000101229
-0.00712841 -4.08592e-07 -0.000309146
-0.00682013 -2.20949e-06 -0.000522131
-0.00640505 -6.1296e-07 -0.000712316
-0.00579221 -3.22576e-06 -0.000908347
-0.00514556 3.46595e-07 -0.00105877
-0.0042446 -3.90293e-06 -0.0012274
-0.00345282 2.74078e-06 -0.00130911
-0.00227391 -4.26641e-06 -0.00144069
-0.00149655 5.53762e-06 -0.00137027
-7.1062e-05 -5.80443e-06 -0.0012454
0 0 0
0 0 0
-6.94396e-05 3.0673e-06 0.0012314
-0.00148061 -5.09294e-06 0.00135652
-0.00224942 1.7016e-06 0.00142805
-0.00342016 -3.63248e-06 0.00130018
-0.00420674 1.27593e-06 0.00122262
-0.00510657 -1.96576e-06 0.00105855
-0.0057543 9.24171e-07 0.000912761
-0.00637239 -9.47293e-07 0.000720729
-0.00679449 5.55378e-07 0.000534034
-0.00711247 -6.20629e-07 0.000323296
-0.00726207 2.08464e-07 0.000116714
-0.0072676 -7.74461e-07 -0.000101337
-0.00712877 4.05039e-08 -0.00030914
-0.00682009 -1.17397e-06 -0.00052237
-0.00640554 2.94234e-07 -0.000712347
-0.00579183 -1.64919e-06 -0.000908756
-0.00514616 1.20844e-06 -0.00105878
-0.00424385 -2.13184e-06 -0.00122801
-0.0034535 2.7775e-06 -0.00130901
-0.00227315 -2.67484e-06 -0.00144149
-0.00149721 4.1846e-06 -0.00137
-7.11984e-05 -4.00805e-06 -0.00124639
0 0 0
0 0 0
-6.96037e-05 5.8063e-07 0.00123111
-0.00148064 -4.20466e-06 0.00135569
-0.0022487 -1.84774e-07 0.00142769
-0.00341997 -3.24596e-06 0.00129949
-0.0042059 -1.22464e-07 0.00122232
-0.00510641 -1.99e-06 0.00105806
-0.00575374 -1.24657e-08 0.000912561
-0.00637235 -1.08795e-06 0.000720429
-0.00679426 3.02137e-08 0.000533933
-0.00711251 -6.40351e-07 0.000323147
-0.00726206 3.85696e-08 0.000116718
-0.0072676 -5.21612e-07 -0.000101368
-0.00712883 1.45979e-07 -0.000309018
-0.00681989 -5.54435e-07 -0.000522303
-0.00640554 5.35633e-07 -0.000712082
-0.00579132 -5.94758e-07 -0.000908602
-0.00514606 1.35436e-06 -0.00105834
-0.00424305 -5.85611e-07 -0.00122778
-0.00345336 2.53114e-06 -0.00130837
-0.00227246 -6.11281e-07 -0.0014412
-0.00149726 3.44683e-06 -0.00136922
-7.1364e-05 -1.34189e-06 -0.00124618
0 0 0
0 0 0
-6.96383e-05 2.68216e-07 0.00123133
-0.00148082 -2.85443e-06 0.00135541
-0.00224841 -2.98188e-07 0.00142783
-0.00342009 -2.36329e-06 0.00129928
-0.00420549 -3.30398e-07 0.00122243
-0.00510646 -1.60184e-06 0.00105793
-0.0057534 -2.58514e-07 0.000912627
-0.00637235 -9.62928e-07 0.00072035
-0.00679405 -1.51174e-07 0.000533975
-0.00711246 -5.52853e-07 0.000323098
-0.00726195 -1.76791e-08 0.00011675
-0.0072675 -3.3446e-07 -0.000101409
-0.00712881 1.926e-07 -0.00030898
-0.00681971 -2.30144e-07 -0.000522358
-0.00640558 5.6123e-07 -0.000712019
-0.00579101 -1.8207e-07 -0.000908691
-0.00514615 1.13965e-06 -0.00105823
-0.00424268 -1.83215e-07 -0.00122792
-0.00345352 1.84165e-06 -0.0013082
-0.00227219 -2.80599e-07 -0.00144139
-0.00149746 2.29777e-06 -0.00136899
-7.14066e-05 -8.2232e-07 -0.00124645
0 0 0
0 0 0
-6.97172e-05 -2.55752e-07 0.00123119
-0.00148083 -1.83827e-06 0.00135505
-0.00224818 -5.33973e-07 0.00142766
-0.00342 -1.54794e-06 0.00129897
-0.00420514 -4.53225e-07 0.00122229
-0.00510634 -1.07166e-06 0.0010577
-0.0057531 -3.1431e-07 0.000912529
-0.00637225 -6.51835e-07 0.000720206
-0.00679385 -1.74161e-07 0.000533925
-0.00711237 -3.6301e-07 0.000323027
-0.00726184 -3.6745e-08 0.000116753
-0.00726739 -1.84942e-07 -0.000101422
-0.00712873 1.36369e-07 -0.000308919
-0.00681953 -6.51368e-08 -0.000522322
-0.00640549 4.00025e-07 -0.00071189