# vtk DataFile Version 3.0
CFD lid driven cavity 3D
ASCII
DATASET STRUCTURED_POINTS
DIMENSIONS 25 25 25
ORIGIN 0 0 0
SPACING 0.0416667 0.0416667 0.0416667
CELL_DATA 13824
VECTORS velocity double
0 0 0
0 0 0
0 0 0
0 0 0
0 0 0
0 0 0
0 0 0
0 0 0
0 0 0
0 0 0
0 0 0
0 0 0
0 0 0
0 0 0
0 0 0
0 0 0
0 0 0
0 0 0
0 0 0
0 0 0
0 0 0
0 0 0
0 0 0
0 0 0
0 0 0
0 0 0
0 0 0
0 0 0
0 0 0
0 0 0
0 0 0
0 0 0
0 0 0
0 0 0
0 0 0
0 0 0
0 0 0
0 0 0
0 0 0
0 0 0
0 0 0
0 0 0
0 0 0
0 0 0
0 0 0
0 0 0
0 0 0
0 0 0
0 0 0
0 0 0
0 0 0
0 0 0
0 0 0
0 0 0
0 0 0
0 0 0
0 0 0
0 0 0
0 0 0
0 0 0
0 0 0
0 0 0
0 0 0
0 0 0
0 0 0
0 0 0
0 0 0
0 0 0
0 0 0
0 0 0
0 0 0
0 0 0
0 0 0
0 0 0
0 0 0
0 0 0
0 0 0
0 0 0
0 0 0
0 0 0
0 0 0
0 0 0
0 0 0
0 0 0
0 0 0
0 0 0
0 0 0
0 0 0
0 0 0
0 0 0
0 0 0
0 0 0
0 0 0
0 0 0
0 0 0
0 0 0
0 0 0
0 0 0
0 0 0
0 0 0
0 0 0
0 0 0
0 0 0
0 0 0
0 0 0
0 0 0
0 0 0
0 0 0
0 0 0
0 0 0
0 0 0
0 0 0
0 0 0
0 0 0
0 0 0
0 0 0
0 0 0
0 0 0
0 0 0
0 0 0
0 0 0
0 0 0
0 0 0
0 0 0
0 0 0
0 0 0
0 0 0
0 0 0
0 0 0
0 0 0
0 0 0
0 0 0
0 0 0
0 0 0
0 0 0
0 0 0
0 0 0
0 0 0
0 0 0
0 0 0
0 0 0
0 0 0
0 0 0
0 0 0
0 0 0
0 0 0
0 0 0
0 0 0
0 0 0
0 0 0
0 0 0
0 0 0
0 0 0
0 0 0
0 0 0
0 0 0
0 0 0
0 0 0
0 0 0
0 0 0
0 0 0
0 0 0
0 0 0
0 0 0
0 0 0
0 0 0
0 0 0
0 0 0
0 0 0
0 0 0
0 0 0
0 0 0
0 0 0
0 0 0
0 0 0
0 0 0
0 0 0
0 0 0
0 0 0
0 0 0
0 0 0
0 0 0
0 0 0
0 0 0
0 0 0
0 0 0
0 0 0
0 0 0
0 0 0
0 0 0
0 0 0
0 0 0
0 0 0
0 0 0
0 0 0
0 0 0
0 0 0
0 0 0
0 0 0
0 0 0
0 0 0
0 0 0
0 0 0
0 0 0
0 0 0
0 0 0
0 0 0
0 0 0
0 0 0
0 0 0
0 0 0
0 0 0
0 0 0
0 0 0
0 0 0
0 0 0
0 0 0
0 0 0
0 0 0
0 0 0
0 0 0
0 0 0
0 0 0
0 0 0
0 0 0
0 0 0
0 0 0
0 0 0
0 0 0
0 0 0
0 0 0
0 0 0
0 0 0
0 0 0
0 0 0
0 0 0
0 0 0
0 0 0
0 0 0
0 0 0
0 0 0
0 0 0
0 0 0
0 0 0
0 0 0
0 0 0
0 0 0
0 0 0
0 0 0
0 0 0
0 0 0
0 0 0
0 0 0
0 0 0
0 0 0
0 0 0
0 0 0
0 0 0
0 0 0
0 0 0
0 0 0
0 0 0
0 0 0
0 0 0
0 0 0
0 0 0
0 0 0
0 0 0
0 0 0
0 0 0
0 0 0
0 0 0
0 0 0
0 0 0
0 0 0
0 0 0
0 0 0
0 0 0
0 0 0
0 0 0
0 0 0
0 0 0
0 0 0
0 0 0
0 0 0
0 0 0
0 0 0
0 0 0
0 0 0
0 0 0
0 0 0
0 0 0
0 0 0
0 0 0
0 0 0
0 0 0
0 0 0
0 0 0
0 0 0
0 0 0
0 0 0
0 0 0
0 0 0
0 0 0
0 0 0
0 0 0
0 0 0
0 0 0
0 0 0
0 0 0
0 0 0
0 0 0
0 0 0
0 0 0
0 0 0
0 0 0
0 0 0
0 0 0
0 0 0
0 0 0
0 0 0
0 0 0
0 0 0
0 0 0
0 0 0
0 0 0
0 0 0
0 0 0
0 0 0
0 0 0
0 0 0
0 0 0
0 0 0
0 0 0
0 0 0
0 0 0
0 0 0
0 0 0
0 0 0
0 0 0
0 0 0
0 0 0
0 0 0
0 0 0
0 0 0
0 0 0
0 0 0
0 0 0
0 0 0
0 0 0
0 0 0
0 0 0
0 0 0
0 0 0
0 0 0
0 0 0
0 0 0
0 0 0
0 0 0
0 0 0
0 0 0
0 0 0
0 0 0
0 0 0
0 0 0
0 0 0
0 0 0
0 0 0
0 0 0
0 0 0
0 0 0
0 0 0
0 0 0
0 0 0
0 0 0
0 0 0
0 0 0
0 0 0
0 0 0
0 0 0
0 0 0
0 0 0
0 0 0
0 0 0
0 0 0
0 0 0
0 0 0
0 0 0
0 0 0
0 0 0
0 0 0
0 0 0
0 0 0
0 0 0
0 0 0
0 0 0
0 0 0
0 0 0
0 0 0
0 0 0
0 0 0
0 0 0
0 0 0
0 0 0
0 0 0
0 0 0
0 0 0
0 0 0
0 0 0
0 0 0
0 0 0
0 0 0
0 0 0
0 0 0
0 0 0
0 0 0
0 0 0
0 0 0
0 0 0
0 0 0
0 0 0
0 0 0
0 0 0
0 0 0
0 0 0
0 0 0
0 0 0
0 0 0
0 0 0
0 0 0
0 0 0
0 0 0
0 0 0
0 0 0
0 0 0
0 0 0
0 0 0
0 0 0
0 0 0
0 0 0
0 0 0
0 0 0
0 0 0
0 0 0
0 0 0
0 0 0
0 0 0
0 0 0
0 0 0
0 0 0
0 0 0
0 0 0
0 0 0
0 0 0
0 0 0
0 0 0
0 0 0
0 0 0
0 0 0
0 0 0
0 0 0
0 0 0
0 0 0
0 0 0
0 0 0
0 0 0
0 0 0
0 0 0
0 0 0
0 0 0
0 0 0
0 0 0
0 0 0
0 0 0
0 0 0
0 0 0
0 0 0
0 0 0
0 0 0
0 0 0
0 0 0
0 0 0
0 0 0
0 0 0
0 0 0
0 0 0
0 0 0
0 0 0
0 0 0
0 0 0
0 0 0
0 0 0
0 0 0
0 0 0
0 0 0
0 0 0
0 0 0
0 0 0
0 0 0
0 0 0
0 0 0
0 0 0
0 0 0
0 0 0
0 0 0
0 0 0
0 0 0
0 0 0
0 0 0
0 0 0
0 0 0
0 0 0
0 0 0
0 0 0
0 0 0
0 0 0
0 0 0
0 0 0
0 0 0
0 0 0
0 0 0
0 0 0
0 0 0
0 0 0
0 0 0
0 0 0
0 0 0
0 0 0
0 0 0
0 0 0
0 0 0
0 0 0
0 0 0
0 0 0
0 0 0
0 0 0
0 0 0
0 0 0
0 0 0
0 0 0
0 0 0
0 0 0
0 0 0
0 0 0
0 0 0
0 0 0
0 0 0
0 0 0
0 0 0
0 0 0
0 0 0
0 0 0
0 0 0
0 0 0
0 0 0
0 0 0
0 0 0
0 0 0
0 0 0
0 0 0
0 0 0
0 0 0
0 0 0
0 0 0
0 0 0
0 0 0
0 0 0
0 0 0
0 0 0
0 0 0
0 0 0
0 0 0
0 0 0
0 0 0
0 0 0
0 0 0
0 0 0
0 0 0
0 0 0
0 0 0
0 0 0
0 0 0
0 0 0
0 0 0
0 0 0
0 0 0
0 0 0
0 0 0
0 0 0
0 0 0
0 0 0
0 0 0
0 0 0
0 0 0
0 0 0
0 0 0
0 0 0
0 0 0
0 0 0
0 0 0
0 0 0
-0.000171457 6.84927e-06 0.000184955
-0.000959079 -0.000134363 2.72231e-05
-0.00153941 -9.8106e-06 0.000173754
-0.00248311 -9.86625e-05 6.81761e-05
-0.00315133 -2.6268e-05 0.000139975
-0.00397154 -7.37801e-05 7.17903e-05
-0.00455567 -2.70142e-05 0.000104624
-0.0051575 -5.0758e-05 5.57418e-05
-0.00556378 -1.71219e-05 6.73172e-05
-0.00589799 -2.90582e-05 2.66473e-05
-0.00606874 -5.02884e-07 2.87794e-05
-0.00610412 -9.25341e-06 -1.08223e-05
-0.00601126 2.0377e-05 -8.49338e-06
-0.00573344 7.01148e-06 -5.31279e-05
-0.00538065 4.40805e-05 -4.03603e-05
-0.00479677 1.68546e-05 -9.7334e-05
-0.00422649 7.00784e-05 -6.03989e-05
-0.00337548 1.58016e-05 -0.000141229
-0.00268305 9.88639e-05 -5.94977e-05
-0.00167073 -1.69891e-06 -0.000183005
-0.00105008 0.000139987 -1.67144e-05
-0.000192664 -1.89925e-05 -0.000197531
0 0 0
0 0 0
-0.000175958 -2.25743e-05 0.000175076
-0.00137146 -0.000125685 1.75423e-05
-0.00227842 -2.90046e-05 0.000171281
-0.00365167 -5.43181e-05 7.07043e-05
-0.0046831 -5.38367e-06 0.000139722
-0.00586688 -2.18166e-05 7.56731e-05
-0.00675152 9.73343e-07 0.000104764
-0.00761705 -1.19261e-05 5.80912e-05
-0.00822264 -1.50601e-06 6.60795e-05
-0.00870097 -1.31095e-05 2.62542e-05
-0.00894917 -8.11055e-06 2.48307e-05
-0.00899653 -2.02433e-05 -1.4416e-05
-0.00884956 -1.58696e-05 -1.59245e-05
-0.00844707 -3.00474e-05 -5.98014e-05
-0.00790991 -2.09511e-05 -5.14112e-05
-0.00706963 -3.82597e-05 -0.000106119
-0.00619984 -1.57039e-05 -7.39784e-05
-0.00497671 -3.70008e-05 -0.000150082
-0.00390858 1.56488e-05 -7.18995e-05
-0.00244496 -1.34019e-05 -0.000189064
-0.00148203 9.47327e-05 -1.48199e-05
-0.000190032 -8.88363e-06 -0.000194302
0 0 0
0 0 0
-0.000187121 -2.11099e-05 0.000201605
-0.00155567 -0.000125717 2.29894e-05
-0.00261095 -3.7518e-05 0.00019627
-0.00418167 -7.63925e-05 7.84931e-05
-0.0053592 -2.03505e-05 0.000156985
-0.00670424 -4.41106e-05 8.19994e-05
-0.00770578 -1.28943e-05 0.000116206
-0.00868467 -2.86308e-05 6.25095e-05
-0.00936668 -1.0514e-05 7.34066e-05
-0.0099047 -2.24785e-05 2.85836e-05
-0.0101814 -1.01595e-05 2.92508e-05
-0.0102311 -2.18753e-05 -1.43988e-05
-0.0100617 -9.86982e-06 -1.35487e-05
-0.00960309 -2.44598e-05 -6.26254e-05
-0.00899402 -6.75973e-06 -5.05538e-05
-0.00804119 -2.72598e-05 -0.000112917
-0.00705635 5.03471e-06 -7.44187e-05
-0.00566915 -2.47241e-05 -0.00016289
-0.00445384 3.62154e-05 -7.35629e-05
-0.0027876 -8.64656e-06 -0.000210349
-0.00167327 9.10437e-05 -1.45287e-05
-0.000206762 -1.36055e-05 -0.000217697
0 0 0
0 0 0
-0.000193443 -3.73116e-05 0.000197005
-0.00161758 -0.00011004 1.33649e-05
-0.0027231 -5.27291e-05 0.000192557
-0.00437356 -7.21487e-05 7.31548e-05
-0.00561093 -3.06413e-05 0.00015405
-0.00702235 -4.12161e-05 7.89978e-05
-0.0080733 -1.81781e-05 0.000114136
-0.00909843 -2.6616e-05 6.05558e-05
-0.00981267 -1.46263e-05 7.16661e-05
-0.0103749 -2.28763e-05 2.6792e-05
-0.0106635 -1.62446e-05 2.73261e-05
-0.0107142 -2.54186e-05 -1.65102e-05
-0.010535 -1.94774e-05 -1.58766e-05
-0.0100537 -3.02549e-05 -6.51544e-05
-0.00941362 -1.97555e-05 -5.30679e-05
-0.00841451 -3.2439e-05 -0.000115522
-0.00737998 -1.00298e-05 -7.62279e-05
-0.00592442 -2.51872e-05 -0.000164893
-0.00464785 1.87753e-05 -7.29463e-05
-0.00289873 -3.96352e-06 -0.000211373
-0.00173391 6.18476e-05 -8.71927e-06
-0.000210091 -5.1331e-06 -0.000217176
0 0 0
0 0 0
-0.00019685 -3.23962e-05 0.000208524
-0.0016396 -9.26979e-05 1.46742e-05
-0.00275787 -5.10734e-05 0.000202899
-0.00444101 -7.22294e-05 7.57489e-05
-0.00569434 -3.69822e-05 0.000161716
-0.00713307 -4.81763e-05 8.15053e-05
-0.00819717 -2.57259e-05 0.000119476
-0.00924066 -3.30674e-05 6.24747e-05
-0.00996357 -1.92282e-05 7.52359e-05
-0.010535 -2.52822e-05 2.78852e-05
-0.010827 -1.57653e-05 2.96163e-05
-0.0108778 -2.22196e-05 -1.64303e-05
-0.0106963 -1.31271e-05 -1.44907e-05
-0.0102057 -2.12549e-05 -6.63868e-05
-0.00955783 -8.24929e-06 -5.23256e-05
-0.00853993 -1.9206e-05 -0.00011857
-0.00749284 3.20058e-06 -7.59065e-05
-0.00600904 -1.22674e-05 -0.000170447
-0.00471677 2.52031e-05 -7.26965e-05
-0.00293437 3.52652e-07 -0.000219943
-0.00175683 4.88465e-05 -7.45907e-06
-0.000216411 -5.95538e-06 -0.000227169
0 0 0
0 0 0
-0.00020099 -3.76212e-05 0.000206462
-0.00164265 -8.0556e-05 9.35803e-06
-0.00276052 -5.46488e-05 0.000200951
-0.00445371 -6.77403e-05 7.17545e-05
-0.00571078 -4.19739e-05 0.000160036
-0.00716028 -4.76096e-05 7.87868e-05
-0.00822894 -2.99215e-05 0.000118201
-0.00928033 -3.3406e-05 6.06331e-05
-0.0100068 -2.21294e-05 7.42716e-05
-0.0105825 -2.53801e-05 2.65058e-05
-0.0108761 -1.76162e-05 2.88337e-05
-0.0109271 -2.15236e-05 -1.76346e-05
-0.0107449 -1.42114e-05 -1.51093e-05
-0.0102505 -1.92063e-05 -6.75368e-05
-0.00959964 -8.89152e-06 -5.25981e-05
-0.00857353 -1.53287e-05 -0.000119612
-0.00752186 1.91998e-06 -7.54004e-05
-0.00602625 -7.03183e-06 -0.000171232
-0.00472994 2.005e-05 -7.08291e-05
-0.00293623 4.40246e-06 -0.000220438
-0.0017593 3.57721e-05 -3.90174e-06
-0.000219282 -6.28106e-07 -0.000227386
0 0 0
0 0 0
-0.000201824 -3.01314e-05 0.000211594
-0.00164291 -6.3398e-05 1.00855e-05
-0.00275793 -4.56778e-05 0.000205667
-0.00445558 -5.71276e-05 7.29857e-05
-0.00571144 -3.75581e-05 0.00016378
-0.00716607 -4.26323e-05 8.00283e-05
-0.00823452 -2.80097e-05 0.000120926
-0.00928966 -3.06775e-05 6.1599e-05
-0.0100163 -2.04745e-05 7.61274e-05
-0.010594 -2.25026e-05 2.70338e-05
-0.010888 -1.4825e-05 3.00106e-05
-0.0109391 -1.72076e-05 -1.76666e-05
-0.0107573 -9.82913e-06 -1.44407e-05
-0.010261 -1.32043e-05 -6.82791e-05
-0.00961043 -3.62283e-06 -5.2294e-05
-0.00858036 -8.63355e-06 -0.000121268
-0.00752922 5.75037e-06 -7.53096e-05
-0.00602799 -2.10824e-06 -0.000174006
-0.00473299 1.84179e-05 -7.07326e-05
-0.00293452 4.64011e-06 -0.00022434
-0.00176031 2.64736e-05 -3.43985e-06
-0.000221595 -1.19143e-06 -0.000231827
0 0 0
0 0 0
-0.000204087 -2.84777e-05 0.000210594
-0.00164149 -5.18043e-05 7.47617e-06
-0.00275378 -4.11009e-05 0.000204733
-0.00445185 -4.82424e-05 7.07858e-05
-0.00570613 -3.45285e-05 0.000162966
-0.00716291 -3.70683e-05 7.83993e-05
-0.00823099 -2.61019e-05 0.000120291
-0.0092882 -2.70421e-05 6.04527e-05
-0.0100151 -1.90439e-05 7.56698e-05
-0.010594 -1.97066e-05 2.62056e-05
-0.0108883 -1.35466e-05 2.97128e-05
-0.0109397 -1.4571e-05 -1.83191e-05
-0.010758 -8.6709e-06 -1.45566e-05
-0.0102607 -1.0374e-05 -6.88385e-05
-0.00961033 -2.93585e-06 -5.21288e-05
-0.00857803 -5.66046e-06 -0.000121752
-0.00752736 4.99976e-06 -7.46888e-05
-0.00602346 3.87619e-07 -0.000174395
-0.00472995 1.46966e-05 -6.94921e-05
-0.00293039 5.9183e-06 -0.000224626
-0.00175894 1.98492e-05 -1.62852e-06
-0.00022333 1.49613e-06 -0.000232011
0 0 0
0 0 0
-0.000204236 -1.9138e-05 0.000212795
-0.00164063 -3.53041e-05 7.854e-06
-0.00275101 -2.8435e-05 0.00020681
-0.00444962 -3.36945e-05 7.1362e-05
-0.00570247 -2.44712e-05 0.000164693
-0.00716058 -2.64929e-05 7.89794e-05
-0.00822794 -1.88182e-05 0.00012159
-0.0092864 -1.95483e-05 6.09012e-05
-0.0100131 -1.37099e-05 7.6566e-05
-0.0105927 -1.40999e-05 2.64332e-05
-0.0108871 -9.43251e-06 3.02717e-05
-0.0109386 -1.00161e-05 -1.83801e-05
-0.0107573 -5.51235e-06 -1.42622e-05
-0.0102593 -6.61791e-06 -6.92575e-05
-0.00960945 -1.13307e-06 -5.20259e-05
-0.00857583 -3.11487e-06 -0.000122603
-0.00752606 4.35927e-06 -7.46942e-05
-0.00602058 8.31441e-07 -0.000175725
-0.00472854 1.04055e-05 -6.9497e-05
-0.00292826 3.90729e-06 -0.000226378
-0.00175859 1.29051e-05 -1.49111e-06
-0.000224173 3.50751e-07 -0.000233942
0 0 0
0 0 0
-0.0002052 -1.36758e-05 0.000212366
-0.00163991 -2.28613e-05 6.77411e-06
-0.00274912 -1.94459e-05 0.000206412
-0.00444736 -2.20904e-05 7.04006e-05
-0.00569926 -1.68441e-05 0.000164347
-0.00715787 -1.76095e-05 7.82335e-05
-0.00822481 -1.30239e-05 0.000121319
-0.00928394 -1.30728e-05 6.03646e-05
-0.0100106 -9.47171e-06 7.63805e-05
-0.0105907 -9.37279e-06 2.60531e-05
-0.0108852 -6.44564e-06 3.01762e-05
-0.0109367 -6.48882e-06 -1.86599e-05
-0.0107556 -3.67027e-06 -1.42517e-05
-0.0102572 -4.00479e-06 -6.94764e-05
-0.00960766 -6.41709e-07 -5.187e-05
-0.0085733 -1.43867e-06 -0.00012278
-0.00752402 2.99804e-06 -7.43366e-05
-0.00601782 1.35284e-06 -0.000175866
-0.00472671 6.80096e-06 -6.8904e-05
-0.00292649 3.46332e-06 -0.000226484
-0.00175799 8.24277e-06 -7.17431e-07
-0.000224951 1.37703e-06 -0.000234013
0 0 0
0 0 0
-0.000205208 -3.3411e-06 0.000212978
-0.0016396 -6.44864e-06 6.88629e-06
-0.00274826 -5.19405e-06 0.000206997
-0.00444652 -6.24685e-06 7.05658e-05
-0.00569796 -4.53667e-06 0.000164844
-0.00715687 -4.9795e-06 7.83993e-05
-0.00822356 -3.52623e-06 0.0001217
-0.00928302 -3.70864e-06 6.0492e-05
-0.0100096 -2.57794e-06 7.66456e-05
-0.0105899 -2.67967e-06 2.61144e-05
-0.0108844 -1.75883e-06 3.03409e-05
-0.010936 -1.89103e-06 -1.86861e-05
-0.010755 -9.99682e-07 -1.41674e-05
-0.0102564 -1.23893e-06 -6.96101e-05
-0.00960705 -1.73409e-07 -5.18438e-05
-0.00857235 -6.00884e-07 -0.000123039
-0.00752337 8.09208e-07 -7.43428e-05
-0.0060168 6.28027e-08 -0.000176258
-0.00472617 1.8182e-06 -6.89106e-05
-0.00292585 5.10302e-07 -0.000226985
-0.00175786 2.1381e-06 -6.8559e-07
-0.000225163 -2.30539e-07 -0.000234558
0 0 0
0 0 0
-0.000205208 3.3411e-06 0.000212978
-0.0016396 6.44864e-06 6.88629e-06
-0.00274826 5.19405e-06 0.000206997
-0.00444652 6.24685e-06 7.05658e-05
-0.00569796 4.53667e-06 0.000164844
-0.00715687 4.9795e-06 7.83993e-05
-0.00822356 3.52623e-06 0.0001217
-0.00928302 3.70864e-06 6.0492e-05
-0.0100096 2.57794e-06 7.66456e-05
-0.0105899 2.67967e-06 2.61144e-05
-0.0108844 1.75883e-06 3.03409e-05
-0.010936 1.89103e-06 -1.86861e-05
-0.010755 9.99682e-07 -1.41674e-05
-0.0102564 1.23893e-06 -6.96101e-05
-0.00960705 1.73409e-07 -5.18438e-05
-0.00857235 6.00884e-07 -0.000123039
-0.00752337 -8.09208e-07 -7.43428e-05
-0.0060168 -6.28027e-08 -0.000176258
-0.00472617 -1.8182e-06 -6.89106e-05
-0.00292585 -5.10302e-07 -0.000226985
-0.00175786 -2.1381e-06 -6.8559e-07
-0.000225163 2.30539e-07 -0.000234558
0 0 0
0 0 0
-0.0002052 1.36758e-05 0.000212366
-0.00163991 2.28613e-05 6.77411e-06
-0.00274912 1.94459e-05 0.000206412
-0.00444736 2.20904e-05 7.04006e-05
-0.00569926 1.68441e-05 0.000164347
-0.00715787 1.76095e-05 7.82335e-05
-0.00822481 1.30239e-05 0.000121319
-0.00928394 1.30728e-05 6.03646e-05
-0.0100106 9.47171e-06 7.63805e-05
-0.0105907 9.37279e-06 2.60531e-05
-0.0108852 6.44564e-06 3.01762e-05
-0.0109367 6.48882e-06 -1.86599e-05
-0.0107556 3.67027e-06 -1.42517e-05
-0.0102572 4.00479e-06 -6.94764e-05
-0.00960766 6.41709e-07 -5.187e-05
-0.0085733 1.43867e-06 -0.00012278
-0.00752402 -2.99804e-06 -7.43366e-05
-0.00601782 -1.35284e-06 -0.000175866
-0.00472671 -6.80096e-06 -6.8904e-05
-0.00292649 -3.46332e-06 -0.000226484
-0.00175799 -8.24277e-06 -7.17431e-07
-0.000224951 -1.37703e-06 -0.000234013
0 0 0
0 0 0
-0.000204236 1.9138e-05 0.000212795
-0.00164063 3.53041e-05 7.854e-06
-0.00275101 2.8435e-05 0.00020681
-0.00444962 3.36945e-05 7.1362e-05
-0.00570247 2.44712e-05 0.000164693
-0.00716058 2.64929e-05 7.89794e-05
-0.00822794 1.88182e-05 0.00012159
-0.0092864 1.95483e-05 6.09012e-05
-0.0100131 1.37099e-05 7.6566e-05
-0.0105927 1.40999e-05 2.64332e-05
-0.0108871 9.43251e-06 3.02717e-05
-0.0109386 1.00161e-05 -1.83801e-05
-0.0107573 5.51235e-06 -1.42622e-05
-0.0102593 6.61791e-06 -6.92575e-05
-0.00960945 1.13307e-06 -5.20259e-05
-0.00857583 3.11487e-06 -0.000122603
-0.00752606 -4.35927e-06 -7.46942e-05
-0.00602058 -8.31441e-07 -0.000175725
-0.00472854 -1.04055e-05 -6.9497e-05
-0.00292826 -3.90729e-06 -0.000226378
-0.00175859 -1.29051e-05 -1.49111e-06
-0.000224173 -3.50751e-07 -0.000233942
0 0 0
0 0 0
-0.000204087 2.84777e-05 0.000210594
-0.00164149 5.18043e-05 7.47617e-06
-0.00275378 4.11009e-05 0.000204733
-0.00445185 4.82424e-05 7.07858e-05
-0.00570613 3.45285e-05 0.000162966
-0.00716291 3.70683e-05 7.83993e-05
-0.00823099 2.61019e-05 0.000120291
-0.0092882 2.70421e-05 6.04527e-05
-0.0100151 1.90439e-05 7.56698e-05
-0.010594 1.97066e-05 2.62056e-05
-0.0108883 1.35466e-05 2.97128e-05
-0.0109397 1.4571e-05 -1.83191e-05
-0.010758 8.6709e-06 -1.45566e-05
-0.0102607 1.0374e-05 -6.88385e-05
-0.00961033 2.93585e-06 -5.21288e-05
-0.00857803 5.66046e-06 -0.000121752
-0.00752736 -4.99976e-06 -7.46888e-05
-0.00602346 -3.87619e-07 -0.000174395
-0.00472995 -1.46966e-05 -6.94921e-05
-0.00293039 -5.9183e-06 -0.000224626
-0.00175894 -1.98492e-05 -1.62852e-06
-0.00022333 -1.49613e-06 -0.000232011
0 0 0
0 0 0
-0.000201824 3.01314e-05 0.000211594
-0.00164291 6.3398e-05 1.00855e-05
-0.00275793 4.56778e-05 0.000205667
-0.00445558 5.71276e-05 7.29857e-05
-0.00571144 3.75581e-05 0.00016378
-0.00716607 4.26323e-05 8.00283e-05
-0.00823452 2.80097e-05 0.000120926
-0.00928966 3.06775e-05 6.1599e-05
-0.0100163 2.04745e-05 7.61274e-05
-0.010594 2.25026e-05 2.70338e-05
-0.010888 1.4825e-05 3.00106e-05
-0.0109391 1.72076e-05 -1.76666e-05
-0.0107573 9.82913e-06 -1.44407e-05
-0.010261 1.32043e-05 -6.82791e-05
-0.00961043 3.62283e-06 -5.2294e-05
-0.00858036 8.63355e-06 -0.000121268
-0.00752922 -5.75037e-06 -7.53096e-05
-0.00602799 2.10824e-06 -0.000174006
-0.00473299 -1.84179e-05 -7.07326e-05
-0.00293452 -4.64011e-06 -0.00022434
-0.00176031 -2.64736e-05 -3.43985e-06
-0.000221595 1.19143e-06 -0.000231827
0 0 0
0 0 0
-0.00020099 3.76212e-05 0.000206462
-0.00164265 8.0556e-05 9.35803e-06
-0.00276052 5.46488e-05 0.000200951
-0.00445371 6.77403e-05 7.17545e-05
-0.00571078 4.19739e-05 0.000160036
-0.00716028 4.76096e-05 7.87868e-05
-0.00822894 2.99215e-05 0.000118201
-0.00928033 3.3406e-05 6.06331e-05
-0.0100068 2.21294e-05 7.42716e-05
-0.0105825 2.53801e-05 2.65058e-05
-0.0108761 1.76162e-05 2.88337e-05
-0.0109271 2.15236e-05 -1.76346e-05
-0.0107449 1.42114e-05 -1.51093e-05
-0.0102505 1.92063e-05 -6.75368e-05
-0.00959964 8.89152e-06 -5.25981e-05
-0.00857353 1.53287e-05 -0.000119612
-0.00752186 -1.91998e-06 -7.54004e-05
-0.00602625 7.03183e-06 -0.000171232
-0.00472994 -2.005e-05 -7.08291e-05
-0.00293623 -4.40246e-06 -0.000220438
-0.0017593 -3.57721e-05 -3.90174e-06
-0.000219282 6.28106e-07 -0.000227386
0 0 0
0 0 0
-0.00019685 3.23962e-05 0.000208524
-0.0016396 9.26979e-05 1.46742e-05
-0.00275787 5.10734e-05 0.000202899
-0.00444101 7.22294e-05 7.57489e-05
-0.00569434 3.69822e-05 0.000161716
-0.00713307 4.81763e-05 8.15053e-05
-0.00819717 2.57259e-05 0.000119476
-0.00924066 3.30674e-05 6.24747e-05
-0.00996357 1.92282e-05 7.52359e-05
-0.010535 2.52822e-05 2.78852e-05
-0.010827 1.57653e-05 2.96163e-05
-0.0108778 2.22196e-05 -1.64303e-05
-0.0106963 1.31271e-05 -1.44907e-05
-0.0102057 2.12549e-05 -6.63868e-05
-0.00955783 8.24929e-06 -5.23256e-05
-0.00853993 1.9206e-05 -0.00011857
-0.00749284 -3.20058e-06 -7.59065e-05
-0.00600904 1.22674e-05 -0.000170447
-0.00471677 -2.52031e-05 -7.26965e-05
-0.00293437 -3.52652e-07 -0.000219943
-0.00175683 -4.88465e-05 -7.45907e-06
-0.000216411 5.95538e-06 -0.000227169
0 0 0
0 0 0
-0.000193443 3.73116e-05 0.000197005
-0.00161758 0.00011004 1.33649e-05
-0.0027231 5.27291e-05 0.000192557
-0.00437356 7.21487e-05 7.31548e-05
-0.00561093 3.06413e-05 0.00015405
-0.00702235 4.12161e-05 7.89978e-05
-0.0080733 1.81781e-05 0.000114136
-0.00909843 2.6616e-05 6.05558e-05
-0.00981267 1.46263e-05 7.16661e-05
-0.0103749 2.28763e-05 2.6792e-05
-0.0106635 1.62446e-05 2.73261e-05
-0.0107142 2.54186e-05 -1.65102e-05
-0.010535 1.94774e-05 -1.58766e-05
-0.0100537 3.02549e-05 -6.51544e-05
-0.00941362 1.97555e-05 -5.30679e-05
-0.00841451 3.2439e-05 -0.000115522
-0.00737998 1.00298e-05 -7.62279e-05
-0.00592442 2.51872e-05 -0.000164893
-0.00464785 -1.87753e-05 -7.29463e-05
-0.00289873 3.96352e-06 -0.000211373
-0.00173391 -6.18476e-05 -8.71927e-06
-0.000210091 5.1331e-06 -0.000217176
0 0 0
0 0 0
-0.000187121 2.11099e-05 0.000201605
-0.00155567 0.000125717 2.29894e-05
-0.00261095 3.7518e-05 0.00019627
-0.00418167 7.63925e-05 7.84931e-05
-0.0053592 2.03505e-05 0.000156985
-0.00670424 4.41106e-05 8.19994e-05
-0.00770578 1.28943e-05 0.000116206
-0.00868467 2.86308e-05 6.25095e-05
-0.00936668 1.0514e-05 7.34066e-05
-0.0099047 2.24785e-05 2.85836e-05
-0.0101814 1.01595e-05 2.92508e-05
-0.0102311 2.18753e-05 -1.43988e-05
-0.0100617 9.86982e-06 -1.35487e-05
-0.00960309 2.44598e-05 -6.26254e-05
-0.00899402 6.75973e-06 -5.05538e-05
-0.00804119 2.72598e-05 -0.000112917
-0.00705635 -5.03471e-06 -7.44187e-05
-0.00566915 2.47241e-05 -0.00016289
-0.00445384 -3.62154e-05 -7.35629e-05
-0.0027876 8.64656e-06 -0.000210349
-0.00167327 -9.10437e-05 -1.45287e-05
-0.000206762 1.36055e-05 -0.000217697
0 0 0
0 0 0
-0.000175958 2.25743e-05 0.000175076
-0.00137146 0.000125685 1.75423e-05
-0.00227842 2.90046e-05 0.000171281
-0.00365167 5.43181e-05 7.07043e-05
-0.0046831 5.38367e-06 0.000139722
-0.00586688 2.18166e-05 7.56731e-05
-0.00675152 -9.73343e-07 0.000104764
-0.00761705 1.19261e-05 5.80912e-05
-0.00822264 1.50601e-06 6.60795e-05
-0.00870097 1.31095e-05 2.62542e-05
-0.00894917 8.11055e-06 2.48307e-05
-0.00899653 2.02433e-05 -1.4416e-05
-0.00884956 1.58696e-05 -1.59245e-05
-0.00844707 3.00474e-05 -5.98014e-05
-0.00790991 2.09511e-05 -5.14112e-05
-0.00706963 3.82597e-05 -0.000106119
-0.00619984 1.57039e-05 -7.39784e-05
-0.00497671 3.70008e-05 -0.000150082
-0.00390858 -1.56488e-05 -7.18995e-05
-0.00244496 1.34019e-05 -0.000189064
-0.00148203 -9.47327e-05 -1.48199e-05
-0.000190032 8.88363e-06 -0.000194302
0 0 0
0 0 0
-0.000171457 -6.84927e-06 0.000184955
-0.000959079 0.000134363 2.72231e-05
-0.00153941 9.8106e-06 0.000173754
-0.00248311 9.86625e-05 6.81761e-05
-0.00315133 2.6268e-05 0.000139975
-0.00397154 7.37801e-05 7.17903e-05
-0.00455567 2.70142e-05 0.000104624
-0.0051575 5.0758e-05 5.57418e-05
-0.00556378 1.71219e-05 6.73172e-05
-0.00589799 2.90582e-05 2.66473e-05
-0.00606874 5.02884e-07 2.87794e-05
-0.00610412 9.25341e-06 -1.08223e-05
-0.00601126 -2.0377e-05 -8.49338e-06
-0.00573344 -7.01148e-06 -5.31279e-05
-0.00538065 -4.40805e-05 -4.03603e-05
-0.00479677 -1.68546e-05 -9.7334e-05
-0.00422649 -7.00784e-05 -6.03989e-05
-0.00337548 -1.58016e-05 -0.000141229
-0.00268305 -9.88639e-05 -5.94977e-05
-0.00167073 1.69891e-06 -0.000183005
-0.00105008 -0.000139987 -1.67144e-05
-0.000192664 1.89925e-05 -0.000197531
0 0 0
0 0 0
0 0 0
0 0 0
0 0 0
0 0 0
0 0 0
0 0 0
0 0 0
0 0 0
0 0 0
0 0 0
0 0 0
0 0 0
0 0 0
0 0 0
0 0 0
0 0 0
0 0 0
0 0 0
0 0 0
0 0 0
0 0 0
0 0 0
0 0 0
0 0 0
0 0 0
0 0 0
0 0 0
0 0 0
0 0 0
0 0 0
0 0 0
0 0 0
0 0 0
0 0 0
0 0 0
0 0 0
0 0 0
0 0 0
0 0 0
0 0 0
0 0 0
0 0 0
0 0 0
0 0 0
0 0 0
0 0 0
0 0 0
0 0 0
-6.45907e-05 0.000123723 0.00101674
-0.00135242 -2.80847e-05 0.00125532
-0.00229469 0.000121089 0.00152551
-0.00374945 2.84601e-05 0.00144709
-0.00482743 9.83381e-05 0.00142676
-0.00606894 4.10235e-05 0.00125092
-0.00699106 7.31979e-05 0.00111635
-0.00789511 3.29841e-05 0.00089697
-0.0085264 4.56621e-05 0.000699869
-0.00902673 1.26783e-05 0.000450066
-0.00928794 1.70025e-05 0.000217511
-0.00934088 -1.48504e-05 -5.14856e-05
-0.00919281 -1.0223e-05 -0.000294483
-0.00877743 -4.61979e-05 -0.000568436
-0.00822321 -3.21458e-05 -0.000792554
-0.00734796 -7.84686e-05 -0.00105383
-0.00644369 -4.22322e-05 -0.00121964
-0.00515886 -0.000109149 -0.00144332
-0.00404107 -2.98938e-05 -0.00148015
-0.00248545 -0.000136585 -0.00159743
-0.00148023 3.13722e-05 -0.00130724
-8.38757e-05 -0.000140818 -0.00108628
0 0 0
0 0 0
-7.02083e-05 4.04256e-05 0.00141462
-0.00201368 -7.98184e-05 0.0018479
-0.00351401 5.60903e-05 0.00224226
-0.00567404 3.23141e-05 0.00216671
-0.00735663 9.04426e-05 0.00211566
-0.00919246 6.56212e-05 0.00186896
-0.0106079 8.09253e-05 0.0016511
-0.0119409 5.22388e-05 0.00133031
-0.0128969 4.6767e-05 0.00102398
-0.0136304 1.494e-05 0.000654593
-0.0140168 -5.82195e-08 0.000298135
-0.0140881 -3.45031e-05 -9.97442e-05
-0.0138507 -5.1112e-05 -0.000471213
-0.013232 -8.75974e-05 -0.000873586
-0.0123761 -9.69693e-05 -0.00121905
-0.0110833 -0.000133442 -0.00159637
-0.00968734 -0.000121117 -0.0018603
-0.00779523 -0.000153902 -0.00216925
-0.00605335 -9.26906e-05 -0.00224604
-0.00375926 -0.000121174 -0.00236613
-0.00217091 3.04499e-05 -0.00194465
-8.01072e-05 -8.77886e-05 -0.00151986
0 0 0
0 0 0
-6.65177e-05 3.83261e-05 0.00160536
-0.0023171 -8.39386e-05 0.00212657
-0.00407991 3.68015e-05 0.00259002
-0.00657635 -1.50029e-06 0.00251053
-0.00852271 6.3882e-05 0.00244819
-0.0106318 3.29683e-05 0.002162
-0.0122568 5.81735e-05 0.00190562
-0.0137816 2.83004e-05 0.00153279
-0.0148732 3.2169e-05 0.00117545
-0.0157079 1.6998e-06 0.000747119
-0.0161444 -4.2952e-06 0.000333165
-0.0162198 -3.65717e-05 -0.000127133
-0.0159419 -4.37568e-05 -0.000557545
-0.0152286 -7.87542e-05 -0.0010222
-0.014244 -7.75654e-05 -0.00142244
-0.0127612 -0.0001153 -0.00185759
-0.0111579 -9.13723e-05 -0.00216435
-0.00898819 -0.000131239 -0.00251899
-0.00697955 -6.1437e-05 -0.00260847
-0.00434042 -0.000106963 -0.00273545
-0.00248409 2.91602e-05 -0.00223893
-8.15661e-05 -8.98005e-05 -0.00172296
0 0 0
0 0 0
-6.9569e-05 -1.15185e-05 0.00165284
-0.00242445 -0.000100205 0.00220449
-0.00428239 -2.12963e-05 0.00269773
-0.00691671 -3.97364e-05 0.00262097
-0.00897192 1.1441e-05 0.00255633
-0.0111947 -2.29581e-06 0.00225843
-0.0129075 1.94819e-05 0.00198859
-0.0145112 2.80004e-06 0.00159862
-0.0156594 7.06734e-06 0.00122299
-0.0165353 -1.27941e-05 0.000774485
-0.0169924 -1.71725e-05 0.000339692
-0.0170694 -3.95931e-05 -0.000142292
-0.0167741 -4.53693e-05 -0.000594236
-0.0160218 -6.92751e-05 -0.00108043
-0.0149825 -6.82858e-05 -0.00150075
-0.0134209 -9.16312e-05 -0.00195524
-0.0117293 -7.22837e-05 -0.0022774
-0.00944304 -9.28093e-05 -0.00264564
-0.00732319 -3.94416e-05 -0.00273774
-0.00454164 -6.18945e-05 -0.00286181
-0.00258943 2.89894e-05 -0.00233203
-8.07035e-05 -4.92704e-05 -0.00178215
0 0 0
0 0 0
-6.65913e-05 -1.49744e-05 0.00167543
-0.0024601 -8.90803e-05 0.00223028
-0.00434511 -3.37179e-05 0.00273929
-0.00703629 -5.54186e-05 0.00265952
-0.00912574 -1.24138e-05 0.00259739
-0.0113953 -2.56762e-05 0.00229261
-0.0131359 -2.92429e-06 0.00201982
-0.0147712 -1.57361e-05 0.00162197
-0.0159374 -6.51228e-06 0.00124094
-0.0168293 -2.05508e-05 0.000784028
-0.0172931 -1.82524e-05 0.000342664
-0.0173704 -3.39607e-05 -0.000148119
-0.01707 -3.26108e-05 -0.000606809
-0.016302 -4.98856e-05 -0.00110204
-0.0152459 -4.27995e-05 -0.00152817
-0.0136522 -6.11065e-05 -0.00199167
-0.0119333 -3.96995e-05 -0.00231704
-0.00959889 -5.90677e-05 -0.00269348
-0.00744476 -1.40428e-05 -0.00278246
-0.00460507 -4.02649e-05 -0.00291041
-0.00262576 2.47488e-05 -0.00236265
-8.02541e-05 -3.9616e-05 -0.00180908
0 0 0
0 0 0
-6.86753e-05 -3.37209e-05 0.00167014
-0.00246577 -8.81358e-05 0.00222213
-0.00435318 -5.45632e-05 0.00273685
-0.00706245 -6.82023e-05 0.0026566
-0.00916139 -3.62573e-05 0.00259722
-0.0114489 -4.23267e-05 0.00229166
-0.0131993 -2.28597e-05 0.00201991
-0.0148475 -2.88028e-05 0.00162122
-0.0160207 -1.91044e-05 0.00124034
-0.0169195 -2.65483e-05 0.000782442
-0.0173863 -2.22566e-05 0.000340742
-0.017464 -3.12916e-05 -0.000151246
-0.017162 -2.78485e-05 -0.00061042
-0.0163878 -3.79152e-05 -0.00110704
-0.0153255 -3.01589e-05 -0.00153336
-0.0137185 -4.04721e-05 -0.00199836
-0.0119898 -2.24245e-05 -0.00232294
-0.00963592 -3.32055e-05 -0.00270083
-0.0074717 -1.27502e-07 -0.00278677
-0.00461213 -1.69473e-05 -0.0029156
-0.00263055 2.43543e-05 -0.00236076
-8.06715e-05 -1.94312e-05 -0.00180944
0 0 0
0 0 0
-6.7088e-05 -2.92529e-05 0.00166986
-0.00246555 -7.1777e-05 0.00221712
-0.0043498 -4.9565e-05 0.00273557
-0.00706683 -6.18929e-05 0.00265339
-0.00916627 -3.77675e-05 0.00259659
-0.0114621 -4.29905e-05 0.00228978
-0.0132142 -2.64733e-05 0.00201953
-0.0148685 -3.04475e-05 0.00162
-0.0160433 -2.06498e-05 0.00124
-0.0169453 -2.51502e-05 0.000781426
-0.017413 -1.92449e-05 0.000340287
-0.017491 -2.47708e-05 -0.000152409
-0.0171891 -1.9453e-05 -0.000611065
-0.0164119 -2.59586e-05 -0.0011086
-0.0153488 -1.74944e-05 -0.00153412
-0.0137355 -2.48934e-05 -0.00200044
-0.0120054 -9.33931e-06 -0.00232348
-0.00964251 -1.84729e-05 -0.00270324
-0.00747777 6.43431e-06 -0.00278627
-0.00460978 -8.81486e-06 -0.00291766
-0.00263115 1.92726e-05 -0.00235824
-8.03043e-05 -1.42567e-05 -0.00181169
0 0 0
0 0 0
-6.84187e-05 -3.15327e-05 0.00166369
-0.00246326 -6.20186e-05 0.00220757
-0.00434383 -4.9014e-05 0.00272738
-0.00706213 -5.67664e-05 0.0026446
-0.00916021 -3.97485e-05 0.00258967
-0.0114595 -4.19681e-05 0.00228302
-0.0132118 -2.90983e-05 0.00201441
-0.0148693 -3.03064e-05 0.00161538
-0.0160449 -2.18494e-05 0.00123678
-0.0169488 -2.35228e-05 0.000778805
-0.0174172 -1.78269e-05 0.000338892
-0.0174955 -2.03275e-05 -0.000153255
-0.0171938 -1.51044e-05 -0.000610746
-0.0164151 -1.83033e-05 -0.0011079
-0.0153517 -1.0934e-05 -0.00153215
-0.0137351 -1.47278e-05 -0.00199835
-0.0120048 -2.71256e-06 -0.00231982
-0.00963778 -7.851e-06 -0.00269987
-0.00747421 9.59936e-06 -0.00278087
-0.00460397 -2.35522e-07 -0.00291329
-0.00262896 1.73438e-05 -0.00235189
-8.09211e-05 -5.35294e-06 -0.00180863
0 0 0
0 0 0
-6.76787e-05 -2.17402e-05 0.00166213
-0.00246168 -4.29613e-05 0.00220341
-0.00433959 -3.48295e-05 0.00272437
-0.00705887 -4.06112e-05 0.00264071
-0.00915549 -2.91963e-05 0.00258708
-0.0114568 -3.09719e-05 0.00228009
-0.0132088 -2.18798e-05 0.00201254
-0.0148681 -2.26563e-05 0.00161343
-0.0160438 -1.6297e-05 0.00123565
-0.0169489 -1.71859e-05 0.000777713
-0.0174175 -1.25952e-05 0.000338492
-0.017496 -1.39799e-05 -0.000153635
-0.0171946 -9.69562e-06 -0.000610459
-0.0164149 -1.16316e-05 -0.00110771
-0.0153519 -5.98169e-06 -0.00153119
-0.0137334 -8.56532e-06 -0.00199771
-0.0120037 -5.15804e-08 -0.00231814
-0.00963428 -3.93856e-06 -0.00269887
-0.00747216 7.69695e-06 -0.00277843
-0.00460055 3.37591e-07 -0.00291211
-0.00262802 1.15356e-05 -0.00234917
-8.07291e-05 -4.05871e-06 -0.00180856
0 0 0
0 0 0
-6.82875e-05 -1.621e-05 0.00165921
-0.00246052 -2.84505e-05 0.002199
-0.00433673 -2.45016e-05 0.00272036
-0.00705569 -2.74058e-05 0.00263643
-0.00915121 -2.08828e-05 0.00258362
-0.0114533 -2.13826e-05 0.00227673
-0.0132049 -1.58477e-05 0.00200998
-0.0148653 -1.57436e-05 0.00161113
-0.0160411 -1.16532e-05 0.00123409
-0.0169468 -1.16374e-05 0.00077648
-0.0174158 -8.54731e-06 0.000337919
-0.0174944 -8.84395e-06 -0.000153899
-0.0171931 -5.94805e-06 -0.000610091
-0.016413 -6.56312e-06 -0.00110712
-0.0153501 -2.92519e-06 -0.00152993
-0.0137305 -3.90033e-06 -0.00199636
-0.0120013 1.25476e-06 -0.00231603
-0.00963076 -4.86941e-07 -0.00269689
-0.00746969 6.15065e-06 -0.00277558
-0.00459796 2.35339e-06 -0.00290977
-0.00262705 8.22781e-06 -0.00234617