# vtk DataFile Version 3.0
CFD lid driven cavity 3D
ASCII
DATASET STRUCTURED_POINTS
DIMENSIONS 25 25 25
ORIGIN 0 0 0
SPACING 0.0416667 0.0416667 0.0416667
CELL_DATA 13824
VECTORS velocity double
0 0 0
0 0 0
0 0 0
0 0 0
0 0 0
0 0 0
0 0 0
0 0 0
0 0 0
0 0 0
0 0 0
0 0 0
0 0 0
0 0 0
0 0 0
0 0 0
0 0 0
0 0 0
0 0 0
0 0 0
0 0 0
0 0 0
0 0 0
0 0 0
0 0 0
0 0 0
0 0 0
0 0 0
0 0 0
0 0 0
0 0 0
0 0 0
0 0 0
0 0 0
0 0 0
0 0 0
0 0 0
0 0 0
0 0 0
0 0 0
0 0 0
0 0 0
0 0 0
0 0 0
0 0 0
0 0 0
0 0 0
0 0 0
0 0 0
0 0 0
0 0 0
0 0 0
0 0 0
0 0 0
0 0 0
0 0 0
0 0 0
0 0 0
0 0 0
0 0 0
0 0 0
0 0 0
0 0 0
0 0 0
0 0 0
0 0 0
0 0 0
0 0 0
0 0 0
0 0 0
0 0 0
0 0 0
0 0 0
0 0 0
0 0 0
0 0 0
0 0 0
0 0 0
0 0 0
0 0 0
0 0 0
0 0 0
0 0 0
0 0 0
0 0 0
0 0 0
0 0 0
0 0 0
0 0 0
0 0 0
0 0 0
0 0 0
0 0 0
0 0 0
0 0 0
0 0 0
0 0 0
0 0 0
0 0 0
0 0 0
0 0 0
0 0 0
0 0 0
0 0 0
0 0 0
0 0 0
0 0 0
0 0 0
0 0 0
0 0 0
0 0 0
0 0 0
0 0 0
0 0 0
0 0 0
0 0 0
0 0 0
0 0 0
0 0 0
0 0 0
0 0 0
0 0 0
0 0 0
0 0 0
0 0 0
0 0 0
0 0 0
0 0 0
0 0 0
0 0 0
0 0 0
0 0 0
0 0 0
0 0 0
0 0 0
0 0 0
0 0 0
0 0 0
0 0 0
0 0 0
0 0 0
0 0 0
0 0 0
0 0 0
0 0 0
0 0 0
0 0 0
0 0 0
0 0 0
0 0 0
0 0 0
0 0 0
0 0 0
0 0 0
0 0 0
0 0 0
0 0 0
0 0 0
0 0 0
0 0 0
0 0 0
0 0 0
0 0 0
0 0 0
0 0 0
0 0 0
0 0 0
0 0 0
0 0 0
0 0 0
0 0 0
0 0 0
0 0 0
0 0 0
0 0 0
0 0 0
0 0 0
0 0 0
0 0 0
0 0 0
0 0 0
0 0 0
0 0 0
0 0 0
0 0 0
0 0 0
0 0 0
0 0 0
0 0 0
0 0 0
0 0 0
0 0 0
0 0 0
0 0 0
0 0 0
0 0 0
0 0 0
0 0 0
0 0 0
0 0 0
0 0 0
0 0 0
0 0 0
0 0 0
0 0 0
0 0 0
0 0 0
0 0 0
0 0 0
0 0 0
0 0 0
0 0 0
0 0 0
0 0 0
0 0 0
0 0 0
0 0 0
0 0 0
0 0 0
0 0 0
0 0 0
0 0 0
0 0 0
0 0 0
0 0 0
0 0 0
0 0 0
0 0 0
0 0 0
0 0 0
0 0 0
0 0 0
0 0 0
0 0 0
0 0 0
0 0 0
0 0 0
0 0 0
0 0 0
0 0 0
0 0 0
0 0 0
0 0 0
0 0 0
0 0 0
0 0 0
0 0 0
0 0 0
0 0 0
0 0 0
0 0 0
0 0 0
0 0 0
0 0 0
0 0 0
0 0 0
0 0 0
0 0 0
0 0 0
0 0 0
0 0 0
0 0 0
0 0 0
0 0 0
0 0 0
0 0 0
0 0 0
0 0 0
0 0 0
0 0 0
0 0 0
0 0 0
0 0 0
0 0 0
0 0 0
0 0 0
0 0 0
0 0 0
0 0 0
0 0 0
0 0 0
0 0 0
0 0 0
0 0 0
0 0 0
0 0 0
0 0 0
0 0 0
0 0 0
0 0 0
0 0 0
0 0 0
0 0 0
0 0 0
0 0 0
0 0 0
0 0 0
0 0 0
0 0 0
0 0 0
0 0 0
0 0 0
0 0 0
0 0 0
0 0 0
0 0 0
0 0 0
0 0 0
0 0 0
0 0 0
0 0 0
0 0 0
0 0 0
0 0 0
0 0 0
0 0 0
0 0 0
0 0 0
0 0 0
0 0 0
0 0 0
0 0 0
0 0 0
0 0 0
0 0 0
0 0 0
0 0 0
0 0 0
0 0 0
0 0 0
0 0 0
0 0 0
0 0 0
0 0 0
0 0 0
0 0 0
0 0 0
0 0 0
0 0 0
0 0 0
0 0 0
0 0 0
0 0 0
0 0 0
0 0 0
0 0 0
0 0 0
0 0 0
0 0 0
0 0 0
0 0 0
0 0 0
0 0 0
0 0 0
0 0 0
0 0 0
0 0 0
0 0 0
0 0 0
0 0 0
0 0 0
0 0 0
0 0 0
0 0 0
0 0 0
0 0 0
0 0 0
0 0 0
0 0 0
0 0 0
0 0 0
0 0 0
0 0 0
0 0 0
0 0 0
0 0 0
0 0 0
0 0 0
0 0 0
0 0 0
0 0 0
0 0 0
0 0 0
0 0 0
0 0 0
0 0 0
0 0 0
0 0 0
0 0 0
0 0 0
0 0 0
0 0 0
0 0 0
0 0 0
0 0 0
0 0 0
0 0 0
0 0 0
0 0 0
0 0 0
0 0 0
0 0 0
0 0 0
0 0 0
0 0 0
0 0 0
0 0 0
0 0 0
0 0 0
0 0 0
0 0 0
0 0 0
0 0 0
0 0 0
0 0 0
0 0 0
0 0 0
0 0 0
0 0 0
0 0 0
0 0 0
0 0 0
0 0 0
0 0 0
0 0 0
0 0 0
0 0 0
0 0 0
0 0 0
0 0 0
0 0 0
0 0 0
0 0 0
0 0 0
0 0 0
0 0 0
0 0 0
0 0 0
0 0 0
0 0 0
0 0 0
0 0 0
0 0 0
0 0 0
0 0 0
0 0 0
0 0 0
0 0 0
0 0 0
0 0 0
0 0 0
0 0 0
0 0 0
0 0 0
0 0 0
0 0 0
0 0 0
0 0 0
0 0 0
0 0 0
0 0 0
0 0 0
0 0 0
0 0 0
0 0 0
0 0 0
0 0 0
0 0 0
0 0 0
0 0 0
0 0 0
0 0 0
0 0 0
0 0 0
0 0 0
0 0 0
0 0 0
0 0 0
0 0 0
0 0 0
0 0 0
0 0 0
0 0 0
0 0 0
0 0 0
0 0 0
0 0 0
0 0 0
0 0 0
0 0 0
0 0 0
0 0 0
0 0 0
0 0 0
0 0 0
0 0 0
0 0 0
0 0 0
0 0 0
0 0 0
0 0 0
0 0 0
0 0 0
0 0 0
0 0 0
0 0 0
0 0 0
0 0 0
0 0 0
0 0 0
0 0 0
0 0 0
0 0 0
0 0 0
0 0 0
0 0 0
0 0 0
0 0 0
0 0 0
0 0 0
0 0 0
0 0 0
0 0 0
0 0 0
0 0 0
0 0 0
0 0 0
0 0 0
0 0 0
0 0 0
0 0 0
0 0 0
0 0 0
0 0 0
0 0 0
0 0 0
0 0 0
0 0 0
0 0 0
0 0 0
0 0 0
0 0 0
0 0 0
0 0 0
0 0 0
0 0 0
0 0 0
0 0 0
0 0 0
0 0 0
0 0 0
0 0 0
0 0 0
0 0 0
0 0 0
0 0 0
0 0 0
0 0 0
0 0 0
0 0 0
0 0 0
0 0 0
0 0 0
0 0 0
0 0 0
0 0 0
0 0 0
0 0 0
0 0 0
0 0 0
0 0 0
0 0 0
0 0 0
0 0 0
0 0 0
0 0 0
0 0 0
0 0 0
0 0 0
0 0 0
0 0 0
0 0 0
0 0 0
0 0 0
0 0 0
0 0 0
0 0 0
0 0 0
0 0 0
0 0 0
0 0 0
0 0 0
0 0 0
0 0 0
0 0 0
0 0 0
0 0 0
0 0 0
0 0 0
0 0 0
0 0 0
-0.000124996 -1.43293e-05 0.000169275
-0.000604685 -0.000148295 2.16188e-05
-0.00102921 -2.80006e-05 0.000174127
-0.00184694 -0.000122723 7.19324e-05
-0.00250476 -4.7788e-05 0.00015597
-0.00337621 -0.00010323 8.79779e-05
-0.00406397 -5.2984e-05 0.000131573
-0.004803 -8.3118e-05 8.22856e-05
-0.00535966 -4.55732e-05 0.000102635
-0.00583984 -6.26491e-05 6.01851e-05
-0.00614339 -2.89051e-05 6.9797e-05
-0.0062652 -4.31413e-05 2.49333e-05
-0.0062284 -5.54286e-06 3.52443e-05
-0.00592407 -2.70696e-05 -2.03084e-05
-0.00551877 2.26737e-05 4.45839e-06
-0.00479151 -1.82299e-05 -7.09264e-05
-0.00409588 5.44747e-05 -1.25418e-05
-0.00307696 -2.13098e-05 -0.000119689
-0.00231062 8.89928e-05 -2.52126e-06
-0.00129491 -3.90557e-05 -0.000157615
-0.000772548 0.000132585 5.15682e-05
-0.000179103 -4.87858e-05 -0.000160533
0 0 0
0 0 0
-0.000154889 -0.000144744 0.000130448
-0.000968165 -0.000318735 -1.9002e-05
-0.00172449 -0.000205964 0.000147273
-0.00303656 -0.00022987 5.18658e-05
-0.00417819 -0.000152893 0.000137328
-0.00557585 -0.000165609 7.43598e-05
-0.00674158 -0.000133586 0.000114751
-0.00792671 -0.000156218 6.6619e-05
-0.00884995 -0.000156144 8.08824e-05
-0.00961704 -0.000191928 3.61446e-05
-0.0101028 -0.000211866 3.71521e-05
-0.0102927 -0.000258916 -1.21226e-05
-0.0102028 -0.000284762 -1.22518e-05
-0.00971071 -0.000335199 -7.18829e-05
-0.00900061 -0.000345016 -5.74735e-05
-0.00783713 -0.000383543 -0.000132648
-0.00663355 -0.000345445 -8.05179e-05
-0.00501349 -0.000357395 -0.000179213
-0.00368043 -0.000239133 -5.84944e-05
-0.00206845 -0.000233922 -0.000198799
-0.00115749 -2.68447e-05 3.37602e-05
-0.000158148 -0.000111603 -0.000174858
0 0 0
0 0 0
-0.000148141 -0.000191033 0.000188242
-0.00120548 -0.000415175 1.6187e-05
-0.00220893 -0.000306957 0.00021341
-0.0038755 -0.000346698 9.95619e-05
-0.0053366 -0.000251443 0.000197612
-0.00708628 -0.000269393 0.000121064
-0.00855098 -0.000224457 0.000166276
-0.0100196 -0.000253015 0.00010802
-0.0111629 -0.000248477 0.000123825
-0.0121018 -0.000293453 7.09695e-05
-0.0126896 -0.000314705 7.25529e-05
-0.0129095 -0.000373956 1.54988e-05
-0.0127792 -0.000402206 1.6385e-05
-0.012159 -0.000465629 -5.28394e-05
-0.0112618 -0.000471978 -3.58243e-05
-0.00982007 -0.000520273 -0.000124863
-0.00831209 -0.000465015 -6.63291e-05
-0.00631102 -0.000480976 -0.00018547
-0.00463085 -0.000329734 -5.00917e-05
-0.00263124 -0.000325799 -0.000218664
-0.00144692 -8.70662e-05 4.68602e-05
-0.000197785 -0.000158922 -0.000193775
0 0 0
0 0 0
-0.000175822 -0.000298235 0.000167913
-0.0013638 -0.000540957 -1.45761e-05
-0.00252366 -0.000472535 0.000197344
-0.0044238 -0.000499186 7.94672e-05
-0.00610457 -0.000411733 0.000183459
-0.00809333 -0.000412455 0.000105231
-0.00976542 -0.000371003 0.000151904
-0.0114259 -0.000391199 9.18353e-05
-0.0127194 -0.000395253 0.000106336
-0.0137724 -0.000441444 5.068e-05
-0.0144258 -0.000477204 4.91521e-05
-0.0146616 -0.000542468 -1.15973e-05
-0.014495 -0.000587711 -1.44989e-05
-0.0137808 -0.000653627 -8.76127e-05
-0.0127422 -0.000673349 -7.32137e-05
-0.0111025 -0.00071039 -0.00016484
-0.00937125 -0.00065987 -0.000104599
-0.00710452 -0.000644201 -0.000224214
-0.00518231 -0.000492588 -7.88616e-05
-0.00292592 -0.00044104 -0.000248502
-0.00158367 -0.00021166 4.00331e-05
-0.000196552 -0.00021292 -0.000210061
0 0 0
0 0 0
-0.000171206 -0.000308508 0.000196993
-0.00146051 -0.000557691 -3.48812e-06
-0.00271849 -0.000517059 0.000228782
-0.00478527 -0.000553499 9.93414e-05
-0.00660905 -0.000474498 0.000212291
-0.0087629 -0.000476285 0.00012615
-0.0105681 -0.000433068 0.00017618
-0.0123563 -0.000449743 0.000110156
-0.013744 -0.000448327 0.000125351
-0.0148696 -0.00048898 6.46427e-05
-0.015562 -0.000517646 6.27559e-05
-0.0158043 -0.000576149 -3.0152e-06
-0.0156122 -0.000613275 -6.22226e-06
-0.0148322 -0.000671841 -8.53467e-05
-0.0137028 -0.000683746 -7.00166e-05
-0.0119289 -0.000715114 -0.000169448
-0.0100565 -0.000661509 -0.000104982
-0.0076122 -0.000645837 -0.000235074
-0.00553892 -0.000503493 -7.90612e-05
-0.00311651 -0.000457211 -0.000262914
-0.00167711 -0.00025135 4.69684e-05
-0.000216672 -0.000228042 -0.000221595
0 0 0
0 0 0
-0.000187514 -0.000341148 0.000185855
-0.00152134 -0.000577233 -2.38795e-05
-0.00283689 -0.000567876 0.000218585
-0.00500451 -0.000602764 8.37476e-05
-0.00691923 -0.000539567 0.000202138
-0.00918089 -0.000536352 0.000113119
-0.0110743 -0.000497084 0.0001657
-0.0129482 -0.000506107 9.77818e-05
-0.0143993 -0.000502935 0.000113713
-0.0155739 -0.000534689 5.11828e-05
-0.0162921 -0.000559036 4.89729e-05
-0.0165376 -0.000607321 -1.89069e-05
-0.0163259 -0.000639271 -2.2694e-05
-0.0154981 -0.000686012 -0.000104279
-0.0143024 -0.000694479 -8.85257e-05
-0.0124331 -0.000713921 -0.00019044
-0.0104609 -0.000664323 -0.000122658
-0.00789484 -0.000639769 -0.000255383
-0.00572299 -0.00051628 -9.10655e-05
-0.00319769 -0.000463574 -0.000279271
-0.00170972 -0.000289689 4.53066e-05
-0.000218443 -0.000237197 -0.000231988
0 0 0
0 0 0
-0.000183827 -0.000301236 0.000199743
-0.0015528 -0.000510861 -2.09226e-05
-0.00289886 -0.000517012 0.000232772
-0.00513411 -0.000553127 9.0946e-05
-0.007104 -0.000503994 0.00021493
-0.00943725 -0.000502156 0.000121312
-0.0113857 -0.000467396 0.0001763
-0.0133159 -0.00047268 0.000105054
-0.0148067 -0.000466076 0.000121726
-0.016013 -0.000489152 5.64225e-05
-0.0167472 -0.000504834 5.42477e-05
-0.0169942 -0.000541171 -1.63873e-05
-0.0167698 -0.000562791 -2.01759e-05
-0.0159096 -0.00059768 -0.000105021
-0.0146719 -0.000599961 -8.84439e-05
-0.0127393 -0.000613308 -0.000194538
-0.0107049 -0.000569754 -0.000123871
-0.00806015 -0.000549805 -0.000262147
-0.00582944 -0.000450462 -9.13497e-05
-0.00324269 -0.000409282 -0.000287055
-0.00172874 -0.000271283 4.86708e-05
-0.000227944 -0.000214567 -0.000238233
0 0 0
0 0 0
-0.000192061 -0.000271246 0.000193644
-0.00157079 -0.000443825 -3.25776e-05
-0.00293236 -0.000461312 0.000226621
-0.00520354 -0.000492226 8.10666e-05
-0.00720481 -0.000457271 0.00020858
-0.00958115 -0.000454475 0.000112839
-0.0115633 -0.000426165 0.000169884
-0.0135294 -0.000427217 9.73894e-05
-0.0150456 -0.000419453 0.000115133
-0.0162728 -0.000434095 4.88631e-05
-0.0170175 -0.000443483 4.72094e-05
-0.0172653 -0.000468357 -2.44612e-05
-0.0170322 -0.000482231 -2.78392e-05
-0.0161501 -0.00050555 -0.000113985
-0.0148838 -0.000504345 -9.63902e-05
-0.0129087 -0.000510705 -0.000204114
-0.0108335 -0.000475051 -0.000130883
-0.00813846 -0.000456375 -0.000271347
-0.00587289 -0.000380579 -9.5555e-05
-0.00325194 -0.000345923 -0.000294652
-0.00172858 -0.000241577 4.8552e-05
-0.000229528 -0.000185084 -0.000243566
0 0 0
0 0 0
-0.000189789 -0.000196015 0.000199665
-0.00157756 -0.000323679 -3.19811e-05
-0.00294508 -0.000340631 0.000232506
-0.00523868 -0.000365348 8.33351e-05
-0.00725705 -0.000341862 0.000213806
-0.00966014 -0.000340398 0.000115688
-0.011662 -0.000319625 0.000174185
-0.0136505 -0.000319613 0.000100018
-0.015182 -0.000312559 0.000118354
-0.0164222 -0.000321604 5.07298e-05
-0.0171735 -0.000326365 4.92856e-05
-0.0174219 -0.000342409 -2.3717e-05
-0.0171836 -0.000350214 -2.69101e-05
-0.0162878 -0.000365219 -0.000114636
-0.0150045 -0.000362656 -9.64129e-05
-0.013003 -0.00036641 -0.000206191
-0.010904 -0.000340747 -0.000131295
-0.00817862 -0.000328325 -0.000274519
-0.00589392 -0.000276457 -9.54238e-05
-0.00325465 -0.000253425 -0.000298196
-0.00172766 -0.00018183 5.00049e-05
-0.000233643 -0.000137545 -0.000246583
0 0 0
0 0 0
-0.000193118 -0.000130231 0.000196936
-0.001581 -0.000208786 -3.71165e-05
-0.00295075 -0.000222445 0.000229637
-0.00525407 -0.000237744 7.87101e-05
-0.00728066 -0.00022463 0.000210833
-0.00969768 -0.000223268 0.000111676
-0.01171 -0.000210419 0.00017125
-0.0137111 -0.000209369 9.6499e-05
-0.0152512 -0.000204182 0.000115499
-0.0164991 -0.000208355 4.74734e-05
-0.0172542 -0.000210071 4.64634e-05
-0.017503 -0.000218351 -2.69474e-05
-0.0172618 -0.000221841 -2.97453e-05
-0.0163578 -0.000229436 -0.000118018
-0.0150645 -0.000226815 -9.91348e-05
-0.0130476 -0.000227771 -0.000209689
-0.0109349 -0.00021181 -0.0001335
-0.00819263 -0.000203479 -0.000277859
-0.00589819 -0.000172764 -9.65473e-05
-0.00325025 -0.000158317 -0.000301009
-0.00172339 -0.000116096 5.01694e-05
-0.000234458 -8.68558e-05 -0.000248714
0 0 0
0 0 0
-0.00019236 -3.84852e-05 0.0001986
-0.00158157 -6.47476e-05 -3.70452e-05
-0.00295163 -6.88926e-05 0.000231225
-0.00525972 -7.43425e-05 7.91998e-05
-0.00728969 -6.99743e-05 0.000212234
-0.00971318 -6.98199e-05 0.000112348
-0.0117301 -6.56393e-05 0.000172404
-0.013737 -6.55421e-05 9.7146e-05
-0.015281 -6.39231e-05 0.000116368
-0.0165325 -6.55148e-05 4.79396e-05
-0.0172893 -6.617e-05 4.70331e-05
-0.0175383 -6.90978e-05 -2.67712e-05
-0.0172958 -7.03323e-05 -2.94727e-05
-0.0163881 -7.30668e-05 -0.000118214
-0.0150905 -7.23286e-05 -9.90985e-05
-0.0130665 -7.29914e-05 -0.000210271
-0.010948 -6.79687e-05 -0.000133544
-0.00819823 -6.57344e-05 -0.000278741
-0.00589974 -5.59783e-05 -9.64361e-05
-0.00324829 -5.17448e-05 -0.000302
-0.00172169 -3.81271e-05 5.05729e-05
-0.000235596 -2.84934e-05 -0.000249603
0 0 0
0 0 0
-0.00019236 3.84852e-05 0.0001986
-0.00158157 6.47476e-05 -3.70452e-05
-0.00295163 6.88926e-05 0.000231225
-0.00525972 7.43425e-05 7.91998e-05
-0.00728969 6.99743e-05 0.000212234
-0.00971318 6.98199e-05 0.000112348
-0.0117301 6.56393e-05 0.000172404
-0.013737 6.55421e-05 9.7146e-05
-0.015281 6.39231e-05 0.000116368
-0.0165325 6.55148e-05 4.79396e-05
-0.0172893 6.617e-05 4.70331e-05
-0.0175383 6.90978e-05 -2.67712e-05
-0.0172958 7.03323e-05 -2.94727e-05
-0.0163881 7.30668e-05 -0.000118214
-0.0150905 7.23286e-05 -9.90985e-05
-0.0130665 7.29914e-05 -0.000210271
-0.010948 6.79687e-05 -0.000133544
-0.00819823 6.57344e-05 -0.000278741
-0.00589974 5.59783e-05 -9.64361e-05
-0.00324829 5.17448e-05 -0.000302
-0.00172169 3.81271e-05 5.05729e-05
-0.000235596 2.84934e-05 -0.000249603
0 0 0
0 0 0
-0.000193118 0.000130231 0.000196936
-0.001581 0.000208786 -3.71165e-05
-0.00295075 0.000222445 0.000229637
-0.00525407 0.000237744 7.87101e-05
-0.00728066 0.00022463 0.000210833
-0.00969768 0.000223268 0.000111676
-0.01171 0.000210419 0.00017125
-0.0137111 0.000209369 9.6499e-05
-0.0152512 0.000204182 0.000115499
-0.0164991 0.000208355 4.74734e-05
-0.0172542 0.000210071 4.64634e-05
-0.017503 0.000218351 -2.69474e-05
-0.0172618 0.000221841 -2.97453e-05
-0.0163578 0.000229436 -0.000118018
-0.0150645 0.000226815 -9.91348e-05
-0.0130476 0.000227771 -0.000209689
-0.0109349 0.00021181 -0.0001335
-0.00819263 0.000203479 -0.000277859
-0.00589819 0.000172764 -9.65473e-05
-0.00325025 0.000158317 -0.000301009
-0.00172339 0.000116096 5.01694e-05
-0.000234458 8.68558e-05 -0.000248714
0 0 0
0 0 0
-0.000189789 0.000196015 0.000199665
-0.00157756 0.000323679 -3.19811e-05
-0.00294508 0.000340631 0.000232506
-0.00523868 0.000365348 8.33351e-05
-0.00725705 0.000341862 0.000213806
-0.00966014 0.000340398 0.000115688
-0.011662 0.000319625 0.000174185
-0.0136505 0.000319613 0.000100018
-0.015182 0.000312559 0.000118354
-0.0164222 0.000321604 5.07298e-05
-0.0171735 0.000326365 4.92856e-05
-0.0174219 0.000342409 -2.3717e-05
-0.0171836 0.000350214 -2.69101e-05
-0.0162878 0.000365219 -0.000114636
-0.0150045 0.000362656 -9.64129e-05
-0.013003 0.00036641 -0.000206191
-0.010904 0.000340747 -0.000131295
-0.00817862 0.000328325 -0.000274519
-0.00589392 0.000276457 -9.54238e-05
-0.00325465 0.000253425 -0.000298196
-0.00172766 0.00018183 5.00049e-05
-0.000233643 0.000137545 -0.000246583
0 0 0
0 0 0
-0.000192061 0.000271246 0.000193644
-0.00157079 0.000443825 -3.25776e-05
-0.00293236 0.000461312 0.000226621
-0.00520354 0.000492226 8.10666e-05
-0.00720481 0.000457271 0.00020858
-0.00958115 0.000454475 0.000112839
-0.0115633 0.000426165 0.000169884
-0.0135294 0.000427217 9.73894e-05
-0.0150456 0.000419453 0.000115133
-0.0162728 0.000434095 4.88631e-05
-0.0170175 0.000443483 4.72094e-05
-0.0172653 0.000468357 -2.44612e-05
-0.0170322 0.000482231 -2.78392e-05
-0.0161501 0.00050555 -0.000113985
-0.0148838 0.000504345 -9.63902e-05
-0.0129087 0.000510705 -0.000204114
-0.0108335 0.000475051 -0.000130883
-0.00813846 0.000456375 -0.000271347
-0.00587289 0.000380579 -9.5555e-05
-0.00325194 0.000345923 -0.000294652
-0.00172858 0.000241577 4.8552e-05
-0.000229528 0.000185084 -0.000243566
0 0 0
0 0 0
-0.000183827 0.000301236 0.000199743
-0.0015528 0.000510861 -2.09226e-05
-0.00289886 0.000517012 0.000232772
-0.00513411 0.000553127 9.0946e-05
-0.007104 0.000503994 0.00021493
-0.00943725 0.000502156 0.000121312
-0.0113857 0.000467396 0.0001763
-0.0133159 0.00047268 0.000105054
-0.0148067 0.000466076 0.000121726
-0.016013 0.000489152 5.64225e-05
-0.0167472 0.000504834 5.42477e-05
-0.0169942 0.000541171 -1.63873e-05
-0.0167698 0.000562791 -2.01759e-05
-0.0159096 0.00059768 -0.000105021
-0.0146719 0.000599961 -8.84439e-05
-0.0127393 0.000613308 -0.000194538
-0.0107049 0.000569754 -0.000123871
-0.00806015 0.000549805 -0.000262147
-0.00582944 0.000450462 -9.13497e-05
-0.00324269 0.000409282 -0.000287055
-0.00172874 0.000271283 4.86708e-05
-0.000227944 0.000214567 -0.000238233
0 0 0
0 0 0
-0.000187514 0.000341148 0.000185855
-0.00152134 0.000577233 -2.38795e-05
-0.00283689 0.000567876 0.000218585
-0.00500451 0.000602764 8.37476e-05
-0.00691923 0.000539567 0.000202138
-0.00918089 0.000536352 0.000113119
-0.0110743 0.000497084 0.0001657
-0.0129482 0.000506107 9.77818e-05
-0.0143993 0.000502935 0.000113713
-0.0155739 0.000534689 5.11828e-05
-0.0162921 0.000559036 4.89729e-05
-0.0165376 0.000607321 -1.89069e-05
-0.0163259 0.000639271 -2.2694e-05
-0.0154981 0.000686012 -0.000104279
-0.0143024 0.000694479 -8.85257e-05
-0.0124331 0.000713921 -0.00019044
-0.0104609 0.000664323 -0.000122658
-0.00789484 0.000639769 -0.000255383
-0.00572299 0.00051628 -9.10655e-05
-0.00319769 0.000463574 -0.000279271
-0.00170972 0.000289689 4.53066e-05
-0.000218443 0.000237197 -0.000231988
0 0 0
0 0 0
-0.000171206 0.000308508 0.000196993
-0.00146051 0.000557691 -3.48812e-06
-0.00271849 0.000517059 0.000228782
-0.00478527 0.000553499 9.93414e-05
-0.00660905 0.000474498 0.000212291
-0.0087629 0.000476285 0.00012615
-0.0105681 0.000433068 0.00017618
-0.0123563 0.000449743 0.000110156
-0.013744 0.000448327 0.000125351
-0.0148696 0.00048898 6.46427e-05
-0.015562 0.000517646 6.27559e-05
-0.0158043 0.000576149 -3.0152e-06
-0.0156122 0.000613275 -6.22226e-06
-0.0148322 0.000671841 -8.53467e-05
-0.0137028 0.000683746 -7.00166e-05
-0.0119289 0.000715114 -0.000169448
-0.0100565 0.000661509 -0.000104982
-0.0076122 0.000645837 -0.000235074
-0.00553892 0.000503493 -7.90612e-05
-0.00311651 0.000457211 -0.000262914
-0.00167711 0.00025135 4.69684e-05
-0.000216672 0.000228042 -0.000221595
0 0 0
0 0 0
-0.000175822 0.000298235 0.000167913
-0.0013638 0.000540957 -1.45761e-05
-0.00252366 0.000472535 0.000197344
-0.0044238 0.000499186 7.94672e-05
-0.00610457 0.000411733 0.000183459
-0.00809333 0.000412455 0.000105231
-0.00976542 0.000371003 0.000151904
-0.0114259 0.000391199 9.18353e-05
-0.0127194 0.000395253 0.000106336
-0.0137724 0.000441444 5.068e-05
-0.0144258 0.000477204 4.91521e-05
-0.0146616 0.000542468 -1.15973e-05
-0.014495 0.000587711 -1.44989e-05
-0.0137808 0.000653627 -8.76127e-05
-0.0127422 0.000673349 -7.32137e-05
-0.0111025 0.00071039 -0.00016484
-0.00937125 0.00065987 -0.000104599
-0.00710452 0.000644201 -0.000224214
-0.00518231 0.000492588 -7.88616e-05
-0.00292592 0.00044104 -0.000248502
-0.00158367 0.00021166 4.00331e-05
-0.000196552 0.00021292 -0.000210061
0 0 0
0 0 0
-0.000148141 0.000191033 0.000188242
-0.00120548 0.000415175 1.6187e-05
-0.00220893 0.000306957 0.00021341
-0.0038755 0.000346698 9.95619e-05
-0.0053366 0.000251443 0.000197612
-0.00708628 0.000269393 0.000121064
-0.00855098 0.000224457 0.000166276
-0.0100196 0.000253015 0.00010802
-0.0111629 0.000248477 0.000123825
-0.0121018 0.000293453 7.09695e-05
-0.0126896 0.000314705 7.25529e-05
-0.0129095 0.000373956 1.54988e-05
-0.0127792 0.000402206 1.6385e-05
-0.012159 0.000465629 -5.28394e-05
-0.0112618 0.000471978 -3.58243e-05
-0.00982007 0.000520273 -0.000124863
-0.00831209 0.000465015 -6.63291e-05
-0.00631102 0.000480976 -0.00018547
-0.00463085 0.000329734 -5.00917e-05
-0.00263124 0.000325799 -0.000218664
-0.00144692 8.70662e-05 4.68602e-05
-0.000197785 0.000158922 -0.000193775
0 0 0
0 0 0
-0.000154889 0.000144744 0.000130448
-0.000968165 0.000318735 -1.9002e-05
-0.00172449 0.000205964 0.000147273
-0.00303656 0.00022987 5.18658e-05
-0.00417819 0.000152893 0.000137328
-0.00557585 0.000165609 7.43598e-05
-0.00674158 0.000133586 0.000114751
-0.00792671 0.000156218 6.6619e-05
-0.00884995 0.000156144 8.08824e-05
-0.00961704 0.000191928 3.61446e-05
-0.0101028 0.000211866 3.71521e-05
-0.0102927 0.000258916 -1.21226e-05
-0.0102028 0.000284762 -1.22518e-05
-0.00971071 0.000335199 -7.18829e-05
-0.00900061 0.000345016 -5.74735e-05
-0.00783713 0.000383543 -0.000132648
-0.00663355 0.000345445 -8.05179e-05
-0.00501349 0.000357395 -0.000179213
-0.00368043 0.000239133 -5.84944e-05
-0.00206845 0.000233922 -0.000198799
-0.00115749 2.68447e-05 3.37602e-05
-0.000158148 0.000111603 -0.000174858
0 0 0
0 0 0
-0.000124996 1.43293e-05 0.000169275
-0.000604685 0.000148295 2.16188e-05
-0.00102921 2.80006e-05 0.000174127
-0.00184694 0.000122723 7.19324e-05
-0.00250476 4.7788e-05 0.00015597
-0.00337621 0.00010323 8.79779e-05
-0.00406397 5.2984e-05 0.000131573
-0.004803 8.3118e-05 8.22856e-05
-0.00535966 4.55732e-05 0.000102635
-0.00583984 6.26491e-05 6.01851e-05
-0.00614339 2.89051e-05 6.9797e-05
-0.0062652 4.31413e-05 2.49333e-05
-0.0062284 5.54286e-06 3.52443e-05
-0.00592407 2.70696e-05 -2.03084e-05
-0.00551877 -2.26737e-05 4.45839e-06
-0.00479151 1.82299e-05 -7.09264e-05
-0.00409588 -5.44747e-05 -1.25418e-05
-0.00307696 2.13098e-05 -0.000119689
-0.00231062 -8.89928e-05 -2.52126e-06
-0.00129491 3.90557e-05 -0.000157615
-0.000772548 -0.000132585 5.15682e-05
-0.000179103 4.87858e-05 -0.000160533
0 0 0
0 0 0
0 0 0
0 0 0
0 0 0
0 0 0
0 0 0
0 0 0
0 0 0
0 0 0
0 0 0
0 0 0
0 0 0
0 0 0
0 0 0
0 0 0
0 0 0
0 0 0
0 0 0
0 0 0
0 0 0
0 0 0
0 0 0
0 0 0
0 0 0
0 0 0
0 0 0
0 0 0
0 0 0
0 0 0
0 0 0
0 0 0
0 0 0
0 0 0
0 0 0
0 0 0
0 0 0
0 0 0
0 0 0
0 0 0
0 0 0
0 0 0
0 0 0
0 0 0
0 0 0
0 0 0
0 0 0
0 0 0
0 0 0
0 0 0
-1.89176e-05 9.62079e-05 0.00080347
-0.000905936 -4.87069e-05 0.00103013
-0.00167836 0.000107816 0.00144929
-0.00306237 1.65397e-05 0.00150628
-0.00424478 9.9515e-05 0.00163013
-0.00570084 4.04044e-05 0.00154858
-0.00690835 8.07661e-05 0.00149346
-0.00814052 3.56949e-05 0.00131766
-0.00910153 5.09813e-05 0.00114848
-0.00990526 9.42111e-06 0.000896827
-0.0104215 1.26187e-05 0.00064541
-0.0106341 -3.21223e-05 0.000327404
-0.0105613 -2.86827e-05 2.5596e-05
-0.0100687 -8.15482e-05 -0.000333356
-0.00935338 -6.28695e-05 -0.000623498
-0.00815534 -0.000128809 -0.000964012
-0.00691875 -7.40158e-05 -0.00113252
-0.00522506 -0.000161868 -0.00136341
-0.00383941 -4.4843e-05 -0.00126357
-0.00212675 -0.000174789 -0.00130446
-0.00117797 4.04158e-05 -0.000815208
-8.60802e-05 -0.000159297 -0.000726884
0 0 0
0 0 0
-5.45131e-05 -0.000156857 0.00113293
-0.00155138 -0.000399497 0.0015897
-0.00295496 -0.000231916 0.00225948
-0.00523636 -0.000240332 0.00242754
-0.00730692 -0.000129983 0.00260973
-0.00970882 -0.000139142 0.00250482
-0.01178 -0.000108141 0.00238481
-0.0138092 -0.000151454 0.00209635
-0.0154271 -0.000180014 0.00178366
-0.0167417 -0.000257461 0.00135584
-0.0175828 -0.000325301 0.000904191
-0.017917 -0.000427589 0.000363577
-0.0177491 -0.000509102 -0.000172978
-0.0169238 -0.000615678 -0.000772014
-0.0156635 -0.000670493 -0.00128796
-0.0136904 -0.000745207 -0.00182961
-0.0115399 -0.000713971 -0.00213864
-0.00877237 -0.000719997 -0.0024491
-0.00635124 -0.000544811 -0.00230665
-0.00356532 -0.000491908 -0.00223455
-0.00187757 -0.000163736 -0.00145161
-6.16356e-05 -0.000243217 -0.00112412
0 0 0
0 0 0
-3.01689e-05 -0.000244713 0.00140941
-0.00199239 -0.000572879 0.0020292
-0.00387462 -0.000422055 0.0028893
-0.00681456 -0.000448193 0.00313283
-0.00950294 -0.000314116 0.00335755
-0.0125598 -0.000324305 0.00322411
-0.0152049 -0.000277427 0.00304875
-0.0177628 -0.000327065 0.00266371
-0.0198003 -0.000354413 0.00223573
-0.0214362 -0.000447009 0.00166614
-0.0224703 -0.000524266 0.00105984
-0.0228621 -0.000647908 0.000347302
-0.0226145 -0.000741203 -0.000364132
-0.0215522 -0.000868771 -0.00114347
-0.0199305 -0.000925029 -0.00182159
-0.0174402 -0.00101012 -0.00251164
-0.0146999 -0.000955923 -0.00291427
-0.0112222 -0.000955079 -0.00328279
-0.00812471 -0.000728767 -0.0030948
-0.00461264 -0.000658742 -0.00293932
-0.00239658 -0.000278571 -0.00192466
-8.563e-05 -0.000325365 -0.001418
0 0 0
0 0 0
-5.59583e-05 -0.000437217 0.00149028
-0.00229492 -0.000815701 0.00219049
-0.00449216 -0.000730045 0.00317396
-0.00787831 -0.000749393 0.0034733
-0.0109956 -0.000622819 0.00372989
-0.0145035 -0.000610591 0.0035836
-0.0175468 -0.000560617 0.00337248
-0.0204649 -0.000595513 0.002926
-0.0227881 -0.000625562 0.00241983
-0.0246374 -0.00071466 0.00175596
-0.025795 -0.000802161 0.00104335
-0.0262163 -0.000928084 0.000215252
-0.0258989 -0.00103411 -0.000616342
-0.0246615 -0.00115895 -0.00151463
-0.0227716 -0.00122142 -0.002301
-0.0199124 -0.00128561 -0.00308049
-0.0167461 -0.00122458 -0.00353629
-0.0127717 -0.00117784 -0.00391994
-0.00920372 -0.0009389 -0.00367938
-0.00520562 -0.000806805 -0.00343428
-0.00266694 -0.000432971 -0.00223976
-7.52872e-05 -0.000385229 -0.00159869
0 0 0
0 0 0
-4.44671e-05 -0.00047403 0.00155588
-0.00248454 -0.00087039 0.00228839
-0.00488508 -0.000834677 0.00335663
-0.00858588 -0.000873231 0.00368526
-0.0119893 -0.000761145 0.00396605
-0.0158089 -0.000749595 0.00380603
-0.0191152 -0.000695024 0.00357092
-0.0222753 -0.000721156 0.00307834
-0.0247829 -0.000739412 0.00251789
-0.0267701 -0.000815641 0.00178606
-0.0280031 -0.000888039 0.000999951
-0.0284366 -0.000998561 9.01321e-05
-0.0280677 -0.00108733 -0.000823177
-0.0267055 -0.00119527 -0.00180444
-0.0246356 -0.00124072 -0.00266149
-0.0215227 -0.00129088 -0.00350222
-0.018076 -0.00122123 -0.00398635
-0.0137652 -0.00117156 -0.00437925
-0.00989338 -0.000945848 -0.00408984
-0.0055759 -0.000823365 -0.00378435
-0.0028378 -0.000486899 -0.00245392
-8.24011e-05 -0.00040347 -0.00173024
0 0 0
0 0 0
-5.91994e-05 -0.000530103 0.00154525
-0.00260458 -0.000913373 0.00228043
-0.0051272 -0.000926754 0.00339663
-0.00902356 -0.000970756 0.00374304
-0.0126104 -0.000881792 0.00404132
-0.0166342 -0.000865199 0.00387593
-0.0201139 -0.000812297 0.00362921
-0.0234352 -0.000824497 0.00311139
-0.0260653 -0.000832965 0.00251993
-0.0281441 -0.000890054 0.00174853
-0.0294257 -0.000946738 0.000918452
-0.029865 -0.00103451 -4.03244e-05
-0.0294572 -0.00110536 -0.00100333
-0.0280058 -0.00118855 -0.00203412
-0.0258079 -0.00121954 -0.0029329
-0.0225173 -0.00124853 -0.00380716
-0.0188766 -0.00117922 -0.00430299
-0.0143377 -0.00112009 -0.00469283
-0.0102685 -0.000922662 -0.0043626
-0.00575251 -0.000801751 -0.00400912
-0.00290735 -0.000517294 -0.00258479
-7.60304e-05 -0.00039937 -0.00180692
0 0 0
0 0 0
-5.36085e-05 -0.000477746 0.00154079
-0.00267037 -0.000820587 0.00226556
-0.00526143 -0.00085781 0.00341093
-0.00928508 -0.000907419 0.00376395
-0.0129851 -0.000839937 0.00407466
-0.0171428 -0.000826839 0.00390439
-0.0207322 -0.000778822 0.00365167
-0.0241589 -0.000783707 0.00311729
-0.0268667 -0.000783023 0.00250712
-0.0290046 -0.000823092 0.00171037
-0.0303167 -0.000861221 0.000853177
-0.0307581 -0.000925854 -0.000136831
-0.0303243 -0.000975 -0.00113041
-0.0288124 -0.00103535 -0.00219265
-0.0265311 -0.00105168 -0.00311607
-0.0231223 -0.00106906 -0.00401135
-0.0193576 -0.00100649 -0.00451124
-0.0146709 -0.000956887 -0.00489891
-0.0104812 -0.000797786 -0.00453806
-0.00584507 -0.000701909 -0.00415552
-0.00294225 -0.000475767 -0.0026677
-7.72111e-05 -0.000357679 -0.00185992
0 0 0
0 0 0
-6.15012e-05 -0.000427438 0.00151354
-0.00270766 -0.000711805 0.00222359
-0.00533447 -0.000761974 0.00338286
-0.00942833 -0.000807095 0.00373906
-0.0131938 -0.000759877 0.00405853
-0.0174322 -0.000747809 0.00388736
-0.0210889 -0.000707481 0.00363392
-0.024582 -0.000705506 0.00309264
-0.0273391 -0.000699126 0.00247447
-0.0295151 -0.000723422 0.00166565
-0.0308468 -0.000746497 0.000795182
-0.0312895 -0.000789476 -0.00021074
-0.0308383 -0.000820781 -0.00122006
-0.029286 -0.000859941 -0.00229865
-0.0269494 -0.00086604 -0.00323436
-0.0234628 -0.00087243 -0.0041397
-0.0196184 -0.000820068 -0.00463914
-0.0148384 -0.000777431 -0.00502284
-0.0105772 -0.000656365 -0.00464058
-0.00587363 -0.000580116 -0.00423894
-0.00294599 -0.000409744 -0.0027119
-7.38178e-05 -0.000300568 -0.00188733
0 0 0
0 0 0
-5.90597e-05 -0.000313339 0.00149849
-0.00272408 -0.000524209 0.0021949
-0.00536702 -0.000568666 0.00336155
-0.0095025 -0.000605687 0.00371766
-0.0133042 -0.000574741 0.0040429
-0.0175917 -0.000566756 0.00387084
-0.0212879 -0.000536788 0.00361788
-0.0248219 -0.000533467 0.00307275
-0.0276087 -0.00052588 0.00245071
-0.0298085 -0.000540082 0.00163516
-0.0311522 -0.000552684 0.000757654
-0.0315956 -0.000579647 -0.000257259
-0.0311339 -0.000597813 -0.00127508
-0.0295563 -0.000622144 -0.002363
-0.0271863 -0.000623031 -0.00330505
-0.0236515 -0.000625531 -0.00421619
-0.0197597 -0.000587368 -0.00471426
-0.0149237 -0.000558076 -0.00509593
-0.0106225 -0.00047517 -0.00469989
-0.00588229 -0.000423749 -0.00428829
-0.00294427 -0.000306655 -0.00273751
-7.36664e-05 -0.000222768 -0.00190526
0 0 0
0 0 0
-6.24705e-05 -0.000205084 0.00148156
-0.00273204 -0.000335221 0.00216797
-0.00538158 -0.000367226 0.00333724
-0.00953621 -0.000390671 0.00369312
-0.0133558 -0.000373568 0.00402201
-0.0176691 -0.000368145 0.00385036
-0.0213865 -0.000349345 0.00359891
-0.0249433 -0.000345561 0.00305306
-0.0277468 -0.000339147 0.00243042
-0.0299603 -0.000345371 0.0016127
-0.031311 -0.000350681 0.000732842
-0.031755 -0.000364351 -0.000285571
-0.0312873 -0.000372903 -0.00130671
-0.0296951 -0.000384987 -0.00239852
-0.0273058 -0.000383493 -0.00334292
-0.0237431 -0.000382958 -0.0042563
-0.0198248 -0.00035916 -0.00475272
-0.0149578 -0.000340668 -0.00513271
-0.0106361 -0.000291877 -0.00472865
-0.00587818 -0.000260836 -0.00431165
-0.00293787 -0.000192155 -0.00274829
-7.22892e-05 -0.0001383 -0.00191272
0 0 0
0 0 0
-6.17919e-05 -6.293e-05 0.00147524
-0.00273426 -0.000106406 0.00215644
-0.00538571 -0.000116869 0.00332679