# vtk DataFile Version 3.0
CFD lid driven cavity 3D
ASCII
DATASET STRUCTURED_POINTS
DIMENSIONS 25 25 25
ORIGIN 0 0 0
SPACING 0.0416667 0.0416667 0.0416667
CELL_DATA 13824
VECTORS velocity double
0 0 0
0 0 0
0 0 0
0 0 0
0 0 0
0 0 0
0 0 0
0 0 0
0 0 0
0 0 0
0 0 0
0 0 0
0 0 0
0 0 0
0 0 0
0 0 0
0 0 0
0 0 0
0 0 0
0 0 0
0 0 0
0 0 0
0 0 0
0 0 0
0 0 0
0 0 0
0 0 0
0 0 0
0 0 0
0 0 0
0 0 0
0 0 0
0 0 0
0 0 0
0 0 0
0 0 0
0 0 0
0 0 0
0 0 0
0 0 0
0 0 0
0 0 0
0 0 0
0 0 0
0 0 0
0 0 0
0 0 0
0 0 0
0 0 0
0 0 0
0 0 0
0 0 0
0 0 0
0 0 0
0 0 0
0 0 0
0 0 0
0 0 0
0 0 0
0 0 0
0 0 0
0 0 0
0 0 0
0 0 0
0 0 0
0 0 0
0 0 0
0 0 0
0 0 0
0 0 0
0 0 0
0 0 0
0 0 0
0 0 0
0 0 0
0 0 0
0 0 0
0 0 0
0 0 0
0 0 0
0 0 0
0 0 0
0 0 0
0 0 0
0 0 0
0 0 0
0 0 0
0 0 0
0 0 0
0 0 0
0 0 0
0 0 0
0 0 0
0 0 0
0 0 0
0 0 0
0 0 0
0 0 0
0 0 0
0 0 0
0 0 0
0 0 0
0 0 0
0 0 0
0 0 0
0 0 0
0 0 0
0 0 0
0 0 0
0 0 0
0 0 0
0 0 0
0 0 0
0 0 0
0 0 0
0 0 0
0 0 0
0 0 0
0 0 0
0 0 0
0 0 0
0 0 0
0 0 0
0 0 0
0 0 0
0 0 0
0 0 0
0 0 0
0 0 0
0 0 0
0 0 0
0 0 0
0 0 0
0 0 0
0 0 0
0 0 0
0 0 0
0 0 0
0 0 0
0 0 0
0 0 0
0 0 0
0 0 0
0 0 0
0 0 0
0 0 0
0 0 0
0 0 0
0 0 0
0 0 0
0 0 0
0 0 0
0 0 0
0 0 0
0 0 0
0 0 0
0 0 0
0 0 0
0 0 0
0 0 0
0 0 0
0 0 0
0 0 0
0 0 0
0 0 0
0 0 0
0 0 0
0 0 0
0 0 0
0 0 0
0 0 0
0 0 0
0 0 0
0 0 0
0 0 0
0 0 0
0 0 0
0 0 0
0 0 0
0 0 0
0 0 0
0 0 0
0 0 0
0 0 0
0 0 0
0 0 0
0 0 0
0 0 0
0 0 0
0 0 0
0 0 0
0 0 0
0 0 0
0 0 0
0 0 0
0 0 0
0 0 0
0 0 0
0 0 0
0 0 0
0 0 0
0 0 0
0 0 0
0 0 0
0 0 0
0 0 0
0 0 0
0 0 0
0 0 0
0 0 0
0 0 0
0 0 0
0 0 0
0 0 0
0 0 0
0 0 0
0 0 0
0 0 0
0 0 0
0 0 0
0 0 0
0 0 0
0 0 0
0 0 0
0 0 0
0 0 0
0 0 0
0 0 0
0 0 0
0 0 0
0 0 0
0 0 0
0 0 0
0 0 0
0 0 0
0 0 0
0 0 0
0 0 0
0 0 0
0 0 0
0 0 0
0 0 0
0 0 0
0 0 0
0 0 0
0 0 0
0 0 0
0 0 0
0 0 0
0 0 0
0 0 0
0 0 0
0 0 0
0 0 0
0 0 0
0 0 0
0 0 0
0 0 0
0 0 0
0 0 0
0 0 0
0 0 0
0 0 0
0 0 0
0 0 0
0 0 0
0 0 0
0 0 0
0 0 0
0 0 0
0 0 0
0 0 0
0 0 0
0 0 0
0 0 0
0 0 0
0 0 0
0 0 0
0 0 0
0 0 0
0 0 0
0 0 0
0 0 0
0 0 0
0 0 0
0 0 0
0 0 0
0 0 0
0 0 0
0 0 0
0 0 0
0 0 0
0 0 0
0 0 0
0 0 0
0 0 0
0 0 0
0 0 0
0 0 0
0 0 0
0 0 0
0 0 0
0 0 0
0 0 0
0 0 0
0 0 0
0 0 0
0 0 0
0 0 0
0 0 0
0 0 0
0 0 0
0 0 0
0 0 0
0 0 0
0 0 0
0 0 0
0 0 0
0 0 0
0 0 0
0 0 0
0 0 0
0 0 0
0 0 0
0 0 0
0 0 0
0 0 0
0 0 0
0 0 0
0 0 0
0 0 0
0 0 0
0 0 0
0 0 0
0 0 0
0 0 0
0 0 0
0 0 0
0 0 0
0 0 0
0 0 0
0 0 0
0 0 0
0 0 0
0 0 0
0 0 0
0 0 0
0 0 0
0 0 0
0 0 0
0 0 0
0 0 0
0 0 0
0 0 0
0 0 0
0 0 0
0 0 0
0 0 0
0 0 0
0 0 0
0 0 0
0 0 0
0 0 0
0 0 0
0 0 0
0 0 0
0 0 0
0 0 0
0 0 0
0 0 0
0 0 0
0 0 0
0 0 0
0 0 0
0 0 0
0 0 0
0 0 0
0 0 0
0 0 0
0 0 0
0 0 0
0 0 0
0 0 0
0 0 0
0 0 0
0 0 0
0 0 0
0 0 0
0 0 0
0 0 0
0 0 0
0 0 0
0 0 0
0 0 0
0 0 0
0 0 0
0 0 0
0 0 0
0 0 0
0 0 0
0 0 0
0 0 0
0 0 0
0 0 0
0 0 0
0 0 0
0 0 0
0 0 0
0 0 0
0 0 0
0 0 0
0 0 0
0 0 0
0 0 0
0 0 0
0 0 0
0 0 0
0 0 0
0 0 0
0 0 0
0 0 0
0 0 0
0 0 0
0 0 0
0 0 0
0 0 0
0 0 0
0 0 0
0 0 0
0 0 0
0 0 0
0 0 0
0 0 0
0 0 0
0 0 0
0 0 0
0 0 0
0 0 0
0 0 0
0 0 0
0 0 0
0 0 0
0 0 0
0 0 0
0 0 0
0 0 0
0 0 0
0 0 0
0 0 0
0 0 0
0 0 0
0 0 0
0 0 0
0 0 0
0 0 0
0 0 0
0 0 0
0 0 0
0 0 0
0 0 0
0 0 0
0 0 0
0 0 0
0 0 0
0 0 0
0 0 0
0 0 0
0 0 0
0 0 0
0 0 0
0 0 0
0 0 0
0 0 0
0 0 0
0 0 0
0 0 0
0 0 0
0 0 0
0 0 0
0 0 0
0 0 0
0 0 0
0 0 0
0 0 0
0 0 0
0 0 0
0 0 0
0 0 0
0 0 0
0 0 0
0 0 0
0 0 0
0 0 0
0 0 0
0 0 0
0 0 0
0 0 0
0 0 0
0 0 0
0 0 0
0 0 0
0 0 0
0 0 0
0 0 0
0 0 0
0 0 0
0 0 0
0 0 0
0 0 0
0 0 0
0 0 0
0 0 0
0 0 0
0 0 0
0 0 0
0 0 0
0 0 0
0 0 0
0 0 0
0 0 0
0 0 0
0 0 0
0 0 0
0 0 0
0 0 0
0 0 0
0 0 0
0 0 0
0 0 0
0 0 0
0 0 0
0 0 0
0 0 0
0 0 0
0 0 0
0 0 0
0 0 0
0 0 0
0 0 0
0 0 0
0 0 0
0 0 0
0 0 0
0 0 0
0 0 0
0 0 0
0 0 0
0 0 0
0 0 0
0 0 0
0 0 0
0 0 0
0 0 0
0 0 0
0 0 0
0 0 0
0 0 0
0 0 0
0 0 0
0 0 0
0 0 0
0 0 0
0 0 0
0 0 0
0 0 0
0 0 0
0 0 0
0 0 0
0 0 0
0 0 0
0 0 0
0 0 0
0 0 0
0 0 0
0 0 0
0 0 0
0 0 0
0 0 0
0 0 0
0 0 0
0 0 0
0 0 0
0 0 0
0 0 0
0 0 0
0 0 0
0 0 0
0 0 0
0 0 0
0 0 0
0 0 0
0 0 0
0 0 0
0 0 0
0 0 0
0 0 0
0 0 0
0 0 0
0 0 0
0 0 0
0 0 0
-0.000121855 -1.88391e-05 0.000172549
-0.000579253 -0.000153556 2.46016e-05
-0.000988885 -3.28535e-05 0.000178956
-0.0017957 -0.000129215 7.64565e-05
-0.00245103 -5.36236e-05 0.000162463
-0.00332963 -0.000110535 9.43753e-05
-0.00403059 -5.98355e-05 0.000139533
-0.00478967 -9.10309e-05 9.02793e-05
-0.00536831 -5.31348e-05 0.000111749
-0.00587086 -7.09506e-05 6.91843e-05
-0.00619374 -3.6751e-05 7.955e-05
-0.00632775 -5.16219e-05 3.40993e-05
-0.00629631 -1.32335e-05 4.50079e-05
-0.0059848 -3.5587e-05 -1.18603e-05
-0.0055666 1.5568e-05 1.38717e-05
-0.00481447 -2.67166e-05 -6.37288e-05
-0.00409685 4.83759e-05 -3.23385e-06
-0.0030526 -2.96445e-05 -0.000113584
-0.00227544 8.42344e-05 7.41506e-06
-0.00125803 -4.67861e-05 -0.000151851
-0.000746746 0.000129006 6.19669e-05
-0.000179564 -5.50731e-05 -0.000154786
0 0 0
0 0 0
-0.000157054 -0.000171825 0.000127609
-0.00093985 -0.000363124 -2.27233e-05
-0.00167845 -0.00025375 0.000145396
-0.00298143 -0.000281813 4.95102e-05
-0.00412852 -0.000203495 0.000137172
-0.00554789 -0.00021774 7.41481e-05
-0.00674545 -0.000185876 0.000116181
-0.0079725 -0.000211521 6.79802e-05
-0.00893964 -0.000214787 8.30772e-05
-0.00974915 -0.00025621 3.77849e-05
-0.0102696 -0.000282299 3.8845e-05
-0.0104802 -0.000336814 -1.17568e-05
-0.0103958 -0.00036939 -1.22072e-05
-0.00988711 -0.000426338 -7.38143e-05
-0.00914644 -0.000439439 -5.91102e-05
-0.00793304 -0.000479646 -0.000136554
-0.00668019 -0.000437048 -8.20704e-05
-0.00500748 -0.000443465 -0.000183008
-0.00364397 -0.000311672 -5.69986e-05
-0.00201836 -0.000295779 -0.000200038
-0.00111878 -6.94359e-05 3.92019e-05
-0.000152974 -0.000140837 -0.000173824
0 0 0
0 0 0
-0.00014572 -0.000231819 0.00019141
-0.00117662 -0.000486006 1.83386e-05
-0.00216844 -0.000384434 0.000219196
-0.00383929 -0.000431336 0.000104949
-0.00532173 -0.000334508 0.000206082
-0.00711343 -0.000354921 0.000129475
-0.00863102 -0.000310508 0.000176685
-0.0101634 -0.000343853 0.000118255
-0.0113704 -0.000344756 0.000134973
-0.0123684 -0.000398637 8.13755e-05
-0.0130025 -0.000429607 8.29504e-05
-0.0132485 -0.000500473 2.42698e-05
-0.013122 -0.00053918 2.46921e-05
-0.0124757 -0.000612586 -4.69904e-05
-0.0115322 -0.000623959 -2.98693e-05
-0.0100187 -0.000674594 -0.000121938
-0.00843764 -0.000612421 -6.11591e-05
-0.00635885 -0.000619357 -0.000183621
-0.00462772 -0.000447206 -4.27734e-05
-0.0025982 -0.000425304 -0.000215451
-0.00141647 -0.000155351 5.74693e-05
-0.000197926 -0.000203414 -0.000189127
0 0 0
0 0 0
-0.000177431 -0.000364121 0.000167434
-0.00134485 -0.00065198 -1.70322e-05
-0.00250358 -0.000595513 0.000199362
-0.00442469 -0.000633358 8.05356e-05
-0.00614546 -0.000545329 0.000188002
-0.00819842 -0.000549792 0.000109389
-0.00994516 -0.000509866 0.000158103
-0.011691 -0.00053671 9.75105e-05
-0.0130668 -0.0005488 0.000112636
-0.0141938 -0.000607275 5.57231e-05
-0.0149027 -0.000656838 5.36177e-05
-0.0151674 -0.000737884 -9.41975e-06
-0.0150003 -0.000797727 -1.34465e-05
-0.0142482 -0.00087663 -8.96455e-05
-0.0131451 -0.000903224 -7.55495e-05
-0.0114094 -0.000941957 -0.000170459
-0.00957882 -0.000881889 -0.000107623
-0.00720684 -0.000851506 -0.000230246
-0.00521089 -0.000671351 -7.79815e-05
-0.00290534 -0.000591846 -0.000251246
-0.00155642 -0.000319443 4.71626e-05
-0.000194113 -0.000282166 -0.000209309
0 0 0
0 0 0
-0.000170724 -0.000383558 0.000199719
-0.00145101 -0.000686573 -4.14566e-06
-0.00271936 -0.000660883 0.000234538
-0.00482708 -0.000711048 0.000103576
-0.00671049 -0.000631996 0.000220812
-0.00895137 -0.00063824 0.000133941
-0.0108521 -0.000596796 0.000186206
-0.0127458 -0.000620791 0.000119295
-0.014232 -0.000628142 0.000134942
-0.0154442 -0.000682161 7.25202e-05
-0.0161994 -0.000725772 6.96709e-05
-0.0164719 -0.000801275 1.0625e-06
-0.0162743 -0.000854021 -3.72475e-06
-0.0154447 -0.000926336 -8.65548e-05
-0.0142337 -0.0009453 -7.18614e-05
-0.0123417 -0.000978028 -0.000175145
-0.0103461 -0.000913737 -0.000107987
-0.0077711 -0.000881588 -0.000241535
-0.0056027 -0.000708065 -7.77977e-05
-0.00311312 -0.00063023 -0.000265723
-0.00165682 -0.00037666 5.56523e-05
-0.000217381 -0.000306901 -0.000219989
0 0 0
0 0 0
-0.000189487 -0.000426694 0.000186638
-0.00152386 -0.000721329 -2.7812e-05
-0.00286135 -0.000729804 0.000222315
-0.00508813 -0.000780179 8.52134e-05
-0.00708041 -0.000717954 0.000208401
-0.0094496 -0.000719744 0.000118214
-0.011457 -0.000682534 0.000173128
-0.0134538 -0.000698987 0.000103955
-0.0150174 -0.000704665 0.00012015
-0.016289 -0.000749764 5.54817e-05
-0.0170754 -0.000789034 5.19184e-05
-0.0173512 -0.000854116 -1.92836e-05
-0.0171284 -0.00090146 -2.50953e-05
-0.0162395 -0.000961401 -0.000110886
-0.0149458 -0.000976424 -9.60196e-05
-0.0129373 -0.000996332 -0.000202067
-0.0108194 -0.000935448 -0.000131269
-0.00809918 -0.000893276 -0.000267407
-0.00581283 -0.000738034 -9.41794e-05
-0.00320415 -0.000652048 -0.000286333
-0.0016915 -0.000429106 5.17709e-05
-0.000218224 -0.000325242 -0.000233003
0 0 0
0 0 0
-0.00018485 -0.000382014 0.000202142
-0.00156463 -0.000648154 -2.47623e-05
-0.00294213 -0.000672093 0.000238229
-0.00525316 -0.000723484 9.34112e-05
-0.00731591 -0.000675612 0.000222864
-0.00977446 -0.000678553 0.000127666
-0.0118522 -0.00064556 0.000185147
-0.0139201 -0.000657466 0.000112297
-0.0155346 -0.000658641 0.000129095
-0.0168462 -0.000693562 6.12684e-05
-0.0176527 -0.000722427 5.74363e-05
-0.0179296 -0.000773617 -1.69541e-05
-0.017689 -0.00080875 -2.31401e-05
-0.0167579 -0.000855124 -0.000112647
-0.0154083 -0.000862904 -9.7193e-05
-0.0133189 -0.000876305 -0.00020779
-0.0111201 -0.000822358 -0.000133955
-0.00830181 -0.000786324 -0.000275861
-0.00594066 -0.000658383 -9.5394e-05
-0.00325782 -0.000586634 -0.000295209
-0.00171276 -0.000403864 5.53653e-05
-0.000229515 -0.000297519 -0.000239332
0 0 0
0 0 0
-0.000194392 -0.000344941 0.000195054
-0.00159097 -0.000567389 -3.85589e-05
-0.00299161 -0.000601518 0.000230987
-0.00535129 -0.000646218 8.17926e-05
-0.00745728 -0.000612851 0.000215227
-0.0099727 -0.000614304 0.000117542
-0.0120961 -0.000587474 0.00017721
-0.0142111 -0.000593969 0.000102849
-0.0158595 -0.00059251 0.000120645
-0.0171983 -0.000616804 5.15887e-05
-0.0180181 -0.000636901 4.80835e-05
-0.0182953 -0.000673817 -2.76344e-05
-0.0180416 -0.000698575 -3.36566e-05
-0.0170803 -0.00073101 -0.00012476
-0.0156908 -0.000733955 -0.000108409
-0.0135446 -0.000739892 -0.000220832
-0.0112901 -0.000695255 -0.0001442
-0.00840595 -0.000662794 -0.00028833
-0.00599759 -0.000562996 -0.000102102
-0.00327088 -0.000502278 -0.000305306
-0.00171229 -0.000359939 5.39922e-05
-0.000230849 -0.000259544 -0.000246166
0 0 0
0 0 0
-0.000191703 -0.000251868 0.000201789
-0.00160318 -0.000418052 -3.82911e-05
-0.00301496 -0.000448061 0.000237567
-0.00540665 -0.000483571 8.42182e-05
-0.00753827 -0.000461392 0.000221053
-0.0100906 -0.000463166 0.000120696
-0.0122422 -0.000443393 0.000181943
-0.0143878 -0.000447328 0.000105692
-0.0160577 -0.000444785 0.000124027
-0.0174141 -0.000460834 5.33991e-05
-0.0182422 -0.000473339 4.99536e-05
-0.0185195 -0.000498112 -2.73325e-05
-0.0182574 -0.000513763 -3.33621e-05
-0.0172763 -0.00053531 -0.000126289
-0.0158616 -0.000535632 -0.00010942
-0.0136786 -0.000538941 -0.000224094
-0.0113894 -0.000506583 -0.000145679
-0.00846395 -0.000483958 -0.000292682
-0.0060277 -0.000414432 -0.00010269
-0.00327621 -0.000371985 -0.000309649
-0.00171117 -0.00027213 5.538e-05
-0.000235849 -0.000194019 -0.000249396
0 0 0
0 0 0
-0.000195576 -0.000166868 0.000198639
-0.00161039 -0.000269851 -4.44749e-05
-0.00302772 -0.000292121 0.000234209
-0.00543506 -0.000314342 7.87442e-05
-0.00758026 -0.000302201 0.000217489
-0.010153 -0.000302895 0.000115896
-0.0123205 -0.000290649 0.000178314
-0.0144839 -0.000291976 0.000101351
-0.0161663 -0.000289475 0.000120342
-0.0175331 -0.000297848 4.91977e-05
-0.0183663 -0.000304199 4.61203e-05
-0.0186435 -0.000317703 -3.16966e-05
-0.0183763 -0.000325862 -3.74245e-05
-0.017383 -0.000337315 -0.000131024
-0.0159528 -0.000336313 -0.000113534
-0.0137475 -0.00033685 -0.000229076
-0.0114377 -0.000316666 -0.000149251
-0.00848817 -0.000301965 -0.000297426
-0.00603663 -0.000260339 -0.000104863
-0.00327244 -0.000233826 -0.000313537
-0.00170606 -0.000174012 5.50127e-05
-0.00023662 -0.000123333 -0.000252177
0 0 0
0 0 0
-0.000194697 -5.01586e-05 0.0002005
-0.00161261 -8.46936e-05 -4.45649e-05
-0.00303177 -9.16752e-05 0.000235977
-0.00544685 -9.94787e-05 7.92207e-05
-0.00759801 -9.54043e-05 0.00021903
-0.0101804 -9.59383e-05 0.000116605
-0.0123551 -9.19402e-05 0.000179554
-0.0145269 -9.26379e-05 0.000102014
-0.016215 -9.19135e-05 0.000121219
-0.0175868 -9.49168e-05 4.96052e-05
-0.0184223 -9.71272e-05 4.65916e-05
-0.0186995 -0.000101813 -3.16889e-05
-0.0184299 -0.000104618 -3.73742e-05
-0.017431 -0.000108657 -0.000131515
-0.0159938 -0.000108477 -0.000113821
-0.0137782 -0.000109024 -0.000230041
-0.0114591 -0.000102622 -0.000149635
-0.00849862 -9.82953e-05 -0.000298687
-0.00604038 -8.49416e-05 -0.000104982
-0.00327084 -7.66929e-05 -0.000314789
-0.00170401 -5.72458e-05 5.53781e-05
-0.000238021 -4.03683e-05 -0.000253151
0 0 0
0 0 0
-0.000194697 5.01586e-05 0.0002005
-0.00161261 8.46936e-05 -4.45649e-05
-0.00303177 9.16752e-05 0.000235977
-0.00544685 9.94787e-05 7.92207e-05
-0.00759801 9.54043e-05 0.00021903
-0.0101804 9.59383e-05 0.000116605
-0.0123551 9.19402e-05 0.000179554
-0.0145269 9.26379e-05 0.000102014
-0.016215 9.19135e-05 0.000121219
-0.0175868 9.49168e-05 4.96052e-05
-0.0184223 9.71272e-05 4.65916e-05
-0.0186995 0.000101813 -3.16889e-05
-0.0184299 0.000104618 -3.73742e-05
-0.017431 0.000108657 -0.000131515
-0.0159938 0.000108477 -0.000113821
-0.0137782 0.000109024 -0.000230041
-0.0114591 0.000102622 -0.000149635
-0.00849862 9.82953e-05 -0.000298687
-0.00604038 8.49416e-05 -0.000104982
-0.00327084 7.66929e-05 -0.000314789
-0.00170401 5.72458e-05 5.53781e-05
-0.000238021 4.03683e-05 -0.000253151
0 0 0
0 0 0
-0.000195576 0.000166868 0.000198639
-0.00161039 0.000269851 -4.44749e-05
-0.00302772 0.000292121 0.000234209
-0.00543506 0.000314342 7.87442e-05
-0.00758026 0.000302201 0.000217489
-0.010153 0.000302895 0.000115896
-0.0123205 0.000290649 0.000178314
-0.0144839 0.000291976 0.000101351
-0.0161663 0.000289475 0.000120342
-0.0175331 0.000297848 4.91977e-05
-0.0183663 0.000304199 4.61203e-05
-0.0186435 0.000317703 -3.16966e-05
-0.0183763 0.000325862 -3.74245e-05
-0.017383 0.000337315 -0.000131024
-0.0159528 0.000336313 -0.000113534
-0.0137475 0.00033685 -0.000229076
-0.0114377 0.000316666 -0.000149251
-0.00848817 0.000301965 -0.000297426
-0.00603663 0.000260339 -0.000104863
-0.00327244 0.000233826 -0.000313537
-0.00170606 0.000174012 5.50127e-05
-0.00023662 0.000123333 -0.000252177
0 0 0
0 0 0
-0.000191703 0.000251868 0.000201789
-0.00160318 0.000418052 -3.82911e-05
-0.00301496 0.000448061 0.000237567
-0.00540665 0.000483571 8.42182e-05
-0.00753827 0.000461392 0.000221053
-0.0100906 0.000463166 0.000120696
-0.0122422 0.000443393 0.000181943
-0.0143878 0.000447328 0.000105692
-0.0160577 0.000444785 0.000124027
-0.0174141 0.000460834 5.33991e-05
-0.0182422 0.000473339 4.99536e-05
-0.0185195 0.000498112 -2.73325e-05
-0.0182574 0.000513763 -3.33621e-05
-0.0172763 0.00053531 -0.000126289
-0.0158616 0.000535632 -0.00010942
-0.0136786 0.000538941 -0.000224094
-0.0113894 0.000506583 -0.000145679
-0.00846395 0.000483958 -0.000292682
-0.0060277 0.000414432 -0.00010269
-0.00327621 0.000371985 -0.000309649
-0.00171117 0.00027213 5.538e-05
-0.000235849 0.000194019 -0.000249396
0 0 0
0 0 0
-0.000194392 0.000344941 0.000195054
-0.00159097 0.000567389 -3.85589e-05
-0.00299161 0.000601518 0.000230987
-0.00535129 0.000646218 8.17926e-05
-0.00745728 0.000612851 0.000215227
-0.0099727 0.000614304 0.000117542
-0.0120961 0.000587474 0.00017721
-0.0142111 0.000593969 0.000102849
-0.0158595 0.00059251 0.000120645
-0.0171983 0.000616804 5.15887e-05
-0.0180181 0.000636901 4.80835e-05
-0.0182953 0.000673817 -2.76344e-05
-0.0180416 0.000698575 -3.36566e-05
-0.0170803 0.00073101 -0.00012476
-0.0156908 0.000733955 -0.000108409
-0.0135446 0.000739892 -0.000220832
-0.0112901 0.000695255 -0.0001442
-0.00840595 0.000662794 -0.00028833
-0.00599759 0.000562996 -0.000102102
-0.00327088 0.000502278 -0.000305306
-0.00171229 0.000359939 5.39922e-05
-0.000230849 0.000259544 -0.000246166
0 0 0
0 0 0
-0.00018485 0.000382014 0.000202142
-0.00156463 0.000648154 -2.47623e-05
-0.00294213 0.000672093 0.000238229
-0.00525316 0.000723484 9.34112e-05
-0.00731591 0.000675612 0.000222864
-0.00977446 0.000678553 0.000127666
-0.0118522 0.00064556 0.000185147
-0.0139201 0.000657466 0.000112297
-0.0155346 0.000658641 0.000129095
-0.0168462 0.000693562 6.12684e-05
-0.0176527 0.000722427 5.74363e-05
-0.0179296 0.000773617 -1.69541e-05
-0.017689 0.00080875 -2.31401e-05
-0.0167579 0.000855124 -0.000112647
-0.0154083 0.000862904 -9.7193e-05
-0.0133189 0.000876305 -0.00020779
-0.0111201 0.000822358 -0.000133955
-0.00830181 0.000786324 -0.000275861
-0.00594066 0.000658383 -9.5394e-05
-0.00325782 0.000586634 -0.000295209
-0.00171276 0.000403864 5.53653e-05
-0.000229515 0.000297519 -0.000239332
0 0 0
0 0 0
-0.000189487 0.000426694 0.000186638
-0.00152386 0.000721329 -2.7812e-05
-0.00286135 0.000729804 0.000222315
-0.00508813 0.000780179 8.52134e-05
-0.00708041 0.000717954 0.000208401
-0.0094496 0.000719744 0.000118214
-0.011457 0.000682534 0.000173128
-0.0134538 0.000698987 0.000103955
-0.0150174 0.000704665 0.00012015
-0.016289 0.000749764 5.54817e-05
-0.0170754 0.000789034 5.19184e-05
-0.0173512 0.000854116 -1.92836e-05
-0.0171284 0.00090146 -2.50953e-05
-0.0162395 0.000961401 -0.000110886
-0.0149458 0.000976424 -9.60196e-05
-0.0129373 0.000996332 -0.000202067
-0.0108194 0.000935448 -0.000131269
-0.00809918 0.000893276 -0.000267407
-0.00581283 0.000738034 -9.41794e-05
-0.00320415 0.000652048 -0.000286333
-0.0016915 0.000429106 5.17709e-05
-0.000218224 0.000325242 -0.000233003
0 0 0
0 0 0
-0.000170724 0.000383558 0.000199719
-0.00145101 0.000686573 -4.14566e-06
-0.00271936 0.000660883 0.000234538
-0.00482708 0.000711048 0.000103576
-0.00671049 0.000631996 0.000220812
-0.00895137 0.00063824 0.000133941
-0.0108521 0.000596796 0.000186206
-0.0127458 0.000620791 0.000119295
-0.014232 0.000628142 0.000134942
-0.0154442 0.000682161 7.25202e-05
-0.0161994 0.000725772 6.96709e-05
-0.0164719 0.000801275 1.0625e-06
-0.0162743 0.000854021 -3.72475e-06
-0.0154447 0.000926336 -8.65548e-05
-0.0142337 0.0009453 -7.18614e-05
-0.0123417 0.000978028 -0.000175145
-0.0103461 0.000913737 -0.000107987
-0.0077711 0.000881588 -0.000241535
-0.0056027 0.000708065 -7.77977e-05
-0.00311312 0.00063023 -0.000265723
-0.00165682 0.00037666 5.56523e-05
-0.000217381 0.000306901 -0.000219989
0 0 0
0 0 0
-0.000177431 0.000364121 0.000167434
-0.00134485 0.00065198 -1.70322e-05
-0.00250358 0.000595513 0.000199362
-0.00442469 0.000633358 8.05356e-05
-0.00614546 0.000545329 0.000188002
-0.00819842 0.000549792 0.000109389
-0.00994516 0.000509866 0.000158103
-0.011691 0.00053671 9.75105e-05
-0.0130668 0.0005488 0.000112636
-0.0141938 0.000607275 5.57231e-05
-0.0149027 0.000656838 5.36177e-05
-0.0151674 0.000737884 -9.41975e-06
-0.0150003 0.000797727 -1.34465e-05
-0.0142482 0.00087663 -8.96455e-05
-0.0131451 0.000903224 -7.55495e-05
-0.0114094 0.000941957 -0.000170459
-0.00957882 0.000881889 -0.000107623
-0.00720684 0.000851506 -0.000230246
-0.00521089 0.000671351 -7.79815e-05
-0.00290534 0.000591846 -0.000251246
-0.00155642 0.000319443 4.71626e-05
-0.000194113 0.000282166 -0.000209309
0 0 0
0 0 0
-0.00014572 0.000231819 0.00019141
-0.00117662 0.000486006 1.83386e-05
-0.00216844 0.000384434 0.000219196
-0.00383929 0.000431336 0.000104949
-0.00532173 0.000334508 0.000206082
-0.00711343 0.000354921 0.000129475
-0.00863102 0.000310508 0.000176685
-0.0101634 0.000343853 0.000118255
-0.0113704 0.000344756 0.000134973
-0.0123684 0.000398637 8.13755e-05
-0.0130025 0.000429607 8.29504e-05
-0.0132485 0.000500473 2.42698e-05
-0.013122 0.00053918 2.46921e-05
-0.0124757 0.000612586 -4.69904e-05
-0.0115322 0.000623959 -2.98693e-05
-0.0100187 0.000674594 -0.000121938
-0.00843764 0.000612421 -6.11591e-05
-0.00635885 0.000619357 -0.000183621
-0.00462772 0.000447206 -4.27734e-05
-0.0025982 0.000425304 -0.000215451
-0.00141647 0.000155351 5.74693e-05
-0.000197926 0.000203414 -0.000189127
0 0 0
0 0 0
-0.000157054 0.000171825 0.000127609
-0.00093985 0.000363124 -2.27233e-05
-0.00167845 0.00025375 0.000145396
-0.00298143 0.000281813 4.95102e-05
-0.00412852 0.000203495 0.000137172
-0.00554789 0.00021774 7.41481e-05
-0.00674545 0.000185876 0.000116181
-0.0079725 0.000211521 6.79802e-05
-0.00893964 0.000214787 8.30772e-05
-0.00974915 0.00025621 3.77849e-05
-0.0102696 0.000282299 3.8845e-05
-0.0104802 0.000336814 -1.17568e-05
-0.0103958 0.00036939 -1.22072e-05
-0.00988711 0.000426338 -7.38143e-05
-0.00914644 0.000439439 -5.91102e-05
-0.00793304 0.000479646 -0.000136554
-0.00668019 0.000437048 -8.20704e-05
-0.00500748 0.000443465 -0.000183008
-0.00364397 0.000311672 -5.69986e-05
-0.00201836 0.000295779 -0.000200038
-0.00111878 6.94359e-05 3.92019e-05
-0.000152974 0.000140837 -0.000173824
0 0 0
0 0 0
-0.000121855 1.88391e-05 0.000172549
-0.000579253 0.000153556 2.46016e-05
-0.000988885 3.28535e-05 0.000178956
-0.0017957 0.000129215 7.64565e-05
-0.00245103 5.36236e-05 0.000162463
-0.00332963 0.000110535 9.43753e-05
-0.00403059 5.98355e-05 0.000139533
-0.00478967 9.10309e-05 9.02793e-05
-0.00536831 5.31348e-05 0.000111749
-0.00587086 7.09506e-05 6.91843e-05
-0.00619374 3.6751e-05 7.955e-05
-0.00632775 5.16219e-05 3.40993e-05
-0.00629631 1.32335e-05 4.50079e-05
-0.0059848 3.5587e-05 -1.18603e-05
-0.0055666 -1.5568e-05 1.38717e-05
-0.00481447 2.67166e-05 -6.37288e-05
-0.00409685 -4.83759e-05 -3.23385e-06
-0.0030526 2.96445e-05 -0.000113584
-0.00227544 -8.42344e-05 7.41506e-06
-0.00125803 4.67861e-05 -0.000151851
-0.000746746 -0.000129006 6.19669e-05
-0.000179564 5.50731e-05 -0.000154786
0 0 0
0 0 0
0 0 0
0 0 0
0 0 0
0 0 0
0 0 0
0 0 0
0 0 0
0 0 0
0 0 0
0 0 0
0 0 0
0 0 0
0 0 0
0 0 0
0 0 0
0 0 0
0 0 0
0 0 0
0 0 0
0 0 0
0 0 0
0 0 0
0 0 0
0 0 0
0 0 0
0 0 0
0 0 0
0 0 0
0 0 0
0 0 0
0 0 0
0 0 0
0 0 0
0 0 0
0 0 0
0 0 0
0 0 0
0 0 0
0 0 0
0 0 0
0 0 0
0 0 0
0 0 0
0 0 0
0 0 0
0 0 0
0 0 0
0 0 0
-1.32973e-05 9.3027e-05 0.000808807
-0.000869447 -5.27705e-05 0.00104087
-0.0016218 0.000105345 0.00147576
-0.0029959 1.32701e-05 0.00154688
-0.00418262 9.81468e-05 0.00168831
-0.00565987 3.85119e-05 0.00162137
-0.00689927 8.00446e-05 0.00158015
-0.00817409 3.42883e-05 0.00141438
-0.00918067 4.98027e-05 0.00125213
-0.0100292 7.03321e-06 0.00100269
-0.0105834 9.69982e-06 0.000749367
-0.0108203 -3.68763e-05 0.000424615
-0.010757 -3.41265e-05 0.000113222
-0.0102515 -8.91567e-05 -0.000258344
-0.00950895 -7.02826e-05 -0.000559115
-0.00826276 -0.000138349 -0.000910008
-0.00697823 -8.12191e-05 -0.00107943
-0.00523102 -0.000171028 -0.00131075
-0.00381448 -4.90338e-05 -0.00119664
-0.00208641 -0.000181403 -0.00123406
-0.00114807 3.97679e-05 -0.000732122
-8.9524e-05 -0.0001633 -0.000672996
0 0 0
0 0 0
-5.48154e-05 -0.000200786 0.00113476
-0.00151274 -0.000473614 0.00160094
-0.0028956 -0.000312995 0.00229829
-0.00517649 -0.000327437 0.00249209
-0.00727143 -0.000214894 0.00270419
-0.00972622 -0.000225393 0.00262379
-0.0118681 -0.000194713 0.00252519
-0.0139839 -0.000242754 0.00225058
-0.0156909 -0.000277768 0.00194482
-0.0170896 -0.000365557 0.00151501
-0.0179989 -0.000445526 0.00105318
-0.0183744 -0.000562067 0.000494079
-0.0182171 -0.000657132 -6.62204e-05
-0.0173618 -0.000776152 -0.000692585
-0.016041 -0.000838244 -0.00123225
-0.0139722 -0.000915839 -0.00179336
-0.0117202 -0.000877201 -0.00210579
-0.0088446 -0.000871514 -0.00241266
-0.00635006 -0.000671748 -0.00224411
-0.00351958 -0.000596639 -0.00215656
-0.00183533 -0.000233339 -0.00134846
-5.87126e-05 -0.000288848 -0.00105644
0 0 0
0 0 0
-2.49435e-05 -0.000314862 0.00142191
-0.00195759 -0.000696519 0.00205822
-0.00383404 -0.000560373 0.00295872
-0.00680132 -0.000598187 0.00323813
-0.00954753 -0.000462486 0.00350223
-0.0126984 -0.000475713 0.003399
-0.0154572 -0.00043039 0.00324764
-0.0181454 -0.00048807 0.00287494
-0.0203118 -0.000526203 0.00244855
-0.0220652 -0.000635321 0.00186776
-0.0231907 -0.000731719 0.00123869
-0.0236347 -0.000877384 0.000492442
-0.0233943 -0.000991454 -0.00025931
-0.0222835 -0.00113776 -0.00108232
-0.0205697 -0.00120464 -0.00179805
-0.0179401 -0.00129321 -0.00251733
-0.0150496 -0.00122705 -0.0029264
-0.0114126 -0.00120683 -0.00328835
-0.00819773 -0.000942028 -0.00306329
-0.00460498 -0.000834699 -0.00288031
-0.00237164 -0.000397319 -0.00182455
-8.81711e-05 -0.000399852 -0.00135033
0 0 0
0 0 0
-5.5084e-05 -0.000549158 0.00150171
-0.00228048 -0.0010076 0.00222064
-0.00449452 -0.000947318 0.00325435
-0.00794263 -0.000985793 0.00359622
-0.0111563 -0.000860094 0.00389832
-0.0148025 -0.000853365 0.00378449
-0.0180032 -0.000806962 0.00359678
-0.0210942 -0.000853195 0.0031582
-0.0235831 -0.000898462 0.00264577
-0.0255793 -0.00100979 0.00195944
-0.0268467 -0.00112314 0.00120993
-0.027326 -0.00127794 0.000331993
-0.0270079 -0.00141131 -0.000556914
-0.0256996 -0.00155971 -0.00151498
-0.0236825 -0.00163536 -0.00235226
-0.0206377 -0.00170168 -0.00316944
-0.0172696 -0.00162367 -0.00363324
-0.0130817 -0.00154772 -0.00400494
-0.00934956 -0.00125671 -0.00371354
-0.00523078 -0.00106995 -0.00342428
-0.0026528 -0.000618041 -0.00216644
-7.42682e-05 -0.000500632 -0.00154529
0 0 0
0 0 0
-4.17348e-05 -0.000604195 0.00156886
-0.00249146 -0.00109609 0.00232029
-0.00493383 -0.00109247 0.0034472
-0.00873575 -0.00115501 0.00382271
-0.0122755 -0.00104546 0.00415305
-0.016278 -0.00104085 0.00402543
-0.0197834 -0.000990616 0.00381107
-0.0231559 -0.00102934 0.00332011
-0.0258615 -0.00106424 0.00274419
-0.0280202 -0.0011646 0.00197777
-0.0293771 -0.00126485 0.00114035
-0.0298713 -0.00140624 0.000164787
-0.0294919 -0.00152398 -0.000822093
-0.0280362 -0.00165653 -0.00187825
-0.0258056 -0.0017152 -0.00279835
-0.0224638 -0.00176648 -0.00368429
-0.0187676 -0.00167749 -0.00417719
-0.0141929 -0.001595 -0.0045525
-0.010113 -0.00131215 -0.00419812
-0.0056372 -0.00112814 -0.00383133
-0.00283753 -0.000704745 -0.00241373
-8.3112e-05 -0.000537395 -0.00169433
0 0 0
0 0 0
-5.94057e-05 -0.00067635 0.00155342
-0.00263597 -0.00116315 0.00230501
-0.00522483 -0.0012138 0.00348587
-0.00925853 -0.00128497 0.0038816
-0.0130181 -0.00120041 0.00423191
-0.0172649 -0.00119173 0.00409784
-0.0209805 -0.00114356 0.00386882
-0.0245481 -0.00116838 0.00334654
-0.0274036 -0.00119331 0.0027312
-0.029674 -0.0012741 0.00191446
-0.0310902 -0.00135806 0.00102049
-0.0315906 -0.00147584 -1.77165e-05
-0.0311614 -0.00157465 -0.0010682
-0.0295947 -0.00168104 -0.00218667
-0.0272044 -0.00172394 -0.00315859
-0.0236448 -0.00175246 -0.004084
-0.0197107 -0.00166276 -0.00458855
-0.0148623 -0.00156936 -0.00495488
-0.0105457 -0.00131422 -0.00454609
-0.00583805 -0.00112964 -0.00411466
-0.00291351 -0.000756445 -0.00258015
-7.43457e-05 -0.000546833 -0.00179011
0 0 0
0 0 0
-5.34554e-05 -0.000617208 0.00154527
-0.00272195 -0.00105991 0.00228294
-0.00539982 -0.00113439 0.00349742
-0.00959292 -0.00121097 0.00390094
-0.0134967 -0.00114845 0.00426524
-0.0179116 -0.001143 0.00412476
-0.0217674 -0.00109917 0.00388671
-0.0254686 -0.00111523 0.0033424
-0.0284238 -0.00112897 0.00270109
-0.0307692 -0.00118993 0.00184989
-0.0322236 -0.00125198 0.000918375
-0.0327253 -0.00134293 -0.000162327
-0.0322603 -0.00141641 -0.00125469
-0.0306141 -0.00149668 -0.00241492
-0.0281136 -0.00152278 -0.00341949
-0.024402 -0.00153889 -0.00437051
-0.0203074 -0.0014574 -0.00487869
-0.0152732 -0.00137649 -0.00523766
-0.0108039 -0.00116532 -0.00478657
-0.00594962 -0.00101113 -0.00431186
-0.00295325 -0.000703829 -0.00269411
-7.56491e-05 -0.000497504 -0.00185965
0 0 0
0 0 0
-6.31508e-05 -0.000553182 0.00151236
-0.0027764 -0.000925445 0.00223138
-0.00550629 -0.00100984 0.00346261
-0.00979448 -0.00107928 0.00386976
-0.0137877 -0.00103713 0.00424384
-0.01831 -0.00103182 0.00410118
-0.0222565 -0.000994908 0.00386018
-0.0260456 -0.00100196 0.0033049
-0.0290668 -0.00100711 0.00265029
-0.0314622 -0.00104821 0.00178035
-0.0329416 -0.00109049 0.000827946
-0.0334434 -0.00115456 -0.000276899
-0.0329526 -0.00120523 -0.00139328
-0.0312505 -0.00126 -0.00257738
-0.0286731 -0.00127334 -0.00360004
-0.0248565 -0.00127786 -0.00456435
-0.0206533 -0.00120923 -0.0050715
-0.0154959 -0.0011401 -0.00542231
-0.0109302 -0.000975599 -0.00494056
-0.00598857 -0.000850132 -0.00443559
-0.00295775 -0.000611268 -0.00276312
-7.07088e-05 -0.000424605 -0.00190033
0 0 0
0 0 0
-6.07794e-05 -0.000409405 0.00149323
-0.00280461 -0.000688124 0.00219513
-0.00556196 -0.000759518 0.00343557
-0.00991013 -0.00081563 0.00384267
-0.0139569 -0.000788809 0.0042232
-0.0185476 -0.000785987 0.00407862
-0.0225505 -0.0007584 0.00383649
-0.0263962 -0.000761563 0.00327446
-0.029459 -0.000762184 0.00261226
-0.0318865 -0.000788487 0.00173094
-0.0333815 -0.000814884 0.000766194
-0.0338829 -0.000857017 -0.000353344
-0.0333753 -0.000889031 -0.00148394
-0.0316363 -0.000924429 -0.00268254
-0.0290097 -0.000930246 -0.00371549
-0.0251252 -0.000931038 -0.00468776
-0.0208536 -0.000880693 -0.005193
-0.0156189 -0.000831761 -0.00553874
-0.0109956 -0.000716856 -0.00503658
-0.00600366 -0.000628821 -0.00451369
-0.00295604 -0.000460687 -0.00280639
-7.02792e-05 -0.000317261 -0.00192768
0 0 0
0 0 0
-6.5029e-05 -0.00026729 0.00147276
-0.00282039 -0.000440381 0.00216207
-0.00559151 -0.000489883 0.00340612
-0.00997031 -0.000525546 0.00381293
-0.0140459 -0.000511241 0.00419754
-0.0186745 -0.000509066 0.00405277
-0.0227093 -0.000491668 0.00381128
-0.0265876 -0.000491733 0.00324683
-0.0296746 -0.00049016 0.00258188
-0.0321211 -0.000503581 0.00169564
-0.0336255 -0.00051709 0.000725421
-0.0341265 -0.00053978 -0.000401006
-0.0336087 -0.000556523 -0.00153833
-0.0318475 -0.000575092 -0.00274391
-0.0291912 -0.000576346 -0.00378159
-0.0252662 -0.000574531 -0.00475736
-0.0209545 -0.000543108 -0.00526057
-0.0156751 -0.000512465 -0.0056027
-0.0110202 -0.000444011 -0.00508831
-0.00600212 -0.000390363 -0.00455506
-0.00294864 -0.000290074 -0.00282821
-6.81496e-05 -0.000198648 -0.00194103
0 0 0
0 0 0
-6.4409e-05 -8.32439e-05 0.0014648
-0.00282621 -0.00014128 0.00214754
-0.00560259 -0.000157629 0.00339314
-0.00999573 -0.000170146 0.00379935