# vtk DataFile Version 3.0
CFD lid driven cavity 3D
ASCII
DATASET STRUCTURED_POINTS
DIMENSIONS 25 25 25
ORIGIN 0 0 0
SPACING 0.0416667 0.0416667 0.0416667
CELL_DATA 13824
VECTORS velocity double
0 0 0
0 0 0
0 0 0
0 0 0
0 0 0
0 0 0
0 0 0
0 0 0
0 0 0
0 0 0
0 0 0
0 0 0
0 0 0
0 0 0
0 0 0
0 0 0
0 0 0
0 0 0
0 0 0
0 0 0
0 0 0
0 0 0
0 0 0
0 0 0
0 0 0
0 0 0
0 0 0
0 0 0
0 0 0
0 0 0
0 0 0
0 0 0
0 0 0
0 0 0
0 0 0
0 0 0
0 0 0
0 0 0
0 0 0
0 0 0
0 0 0
0 0 0
0 0 0
0 0 0
0 0 0
0 0 0
0 0 0
0 0 0
0 0 0
0 0 0
0 0 0
0 0 0
0 0 0
0 0 0
0 0 0
0 0 0
0 0 0
0 0 0
0 0 0
0 0 0
0 0 0
0 0 0
0 0 0
0 0 0
0 0 0
0 0 0
0 0 0
0 0 0
0 0 0
0 0 0
0 0 0
0 0 0
0 0 0
0 0 0
0 0 0
0 0 0
0 0 0
0 0 0
0 0 0
0 0 0
0 0 0
0 0 0
0 0 0
0 0 0
0 0 0
0 0 0
0 0 0
0 0 0
0 0 0
0 0 0
0 0 0
0 0 0
0 0 0
0 0 0
0 0 0
0 0 0
0 0 0
0 0 0
0 0 0
0 0 0
0 0 0
0 0 0
0 0 0
0 0 0
0 0 0
0 0 0
0 0 0
0 0 0
0 0 0
0 0 0
0 0 0
0 0 0
0 0 0
0 0 0
0 0 0
0 0 0
0 0 0
0 0 0
0 0 0
0 0 0
0 0 0
0 0 0
0 0 0
0 0 0
0 0 0
0 0 0
0 0 0
0 0 0
0 0 0
0 0 0
0 0 0
0 0 0
0 0 0
0 0 0
0 0 0
0 0 0
0 0 0
0 0 0
0 0 0
0 0 0
0 0 0
0 0 0
0 0 0
0 0 0
0 0 0
0 0 0
0 0 0
0 0 0
0 0 0
0 0 0
0 0 0
0 0 0
0 0 0
0 0 0
0 0 0
0 0 0
0 0 0
0 0 0
0 0 0
0 0 0
0 0 0
0 0 0
0 0 0
0 0 0
0 0 0
0 0 0
0 0 0
0 0 0
0 0 0
0 0 0
0 0 0
0 0 0
0 0 0
0 0 0
0 0 0
0 0 0
0 0 0
0 0 0
0 0 0
0 0 0
0 0 0
0 0 0
0 0 0
0 0 0
0 0 0
0 0 0
0 0 0
0 0 0
0 0 0
0 0 0
0 0 0
0 0 0
0 0 0
0 0 0
0 0 0
0 0 0
0 0 0
0 0 0
0 0 0
0 0 0
0 0 0
0 0 0
0 0 0
0 0 0
0 0 0
0 0 0
0 0 0
0 0 0
0 0 0
0 0 0
0 0 0
0 0 0
0 0 0
0 0 0
0 0 0
0 0 0
0 0 0
0 0 0
0 0 0
0 0 0
0 0 0
0 0 0
0 0 0
0 0 0
0 0 0
0 0 0
0 0 0
0 0 0
0 0 0
0 0 0
0 0 0
0 0 0
0 0 0
0 0 0
0 0 0
0 0 0
0 0 0
0 0 0
0 0 0
0 0 0
0 0 0
0 0 0
0 0 0
0 0 0
0 0 0
0 0 0
0 0 0
0 0 0
0 0 0
0 0 0
0 0 0
0 0 0
0 0 0
0 0 0
0 0 0
0 0 0
0 0 0
0 0 0
0 0 0
0 0 0
0 0 0
0 0 0
0 0 0
0 0 0
0 0 0
0 0 0
0 0 0
0 0 0
0 0 0
0 0 0
0 0 0
0 0 0
0 0 0
0 0 0
0 0 0
0 0 0
0 0 0
0 0 0
0 0 0
0 0 0
0 0 0
0 0 0
0 0 0
0 0 0
0 0 0
0 0 0
0 0 0
0 0 0
0 0 0
0 0 0
0 0 0
0 0 0
0 0 0
0 0 0
0 0 0
0 0 0
0 0 0
0 0 0
0 0 0
0 0 0
0 0 0
0 0 0
0 0 0
0 0 0
0 0 0
0 0 0
0 0 0
0 0 0
0 0 0
0 0 0
0 0 0
0 0 0
0 0 0
0 0 0
0 0 0
0 0 0
0 0 0
0 0 0
0 0 0
0 0 0
0 0 0
0 0 0
0 0 0
0 0 0
0 0 0
0 0 0
0 0 0
0 0 0
0 0 0
0 0 0
0 0 0
0 0 0
0 0 0
0 0 0
0 0 0
0 0 0
0 0 0
0 0 0
0 0 0
0 0 0
0 0 0
0 0 0
0 0 0
0 0 0
0 0 0
0 0 0
0 0 0
0 0 0
0 0 0
0 0 0
0 0 0
0 0 0
0 0 0
0 0 0
0 0 0
0 0 0
0 0 0
0 0 0
0 0 0
0 0 0
0 0 0
0 0 0
0 0 0
0 0 0
0 0 0
0 0 0
0 0 0
0 0 0
0 0 0
0 0 0
0 0 0
0 0 0
0 0 0
0 0 0
0 0 0
0 0 0
0 0 0
0 0 0
0 0 0
0 0 0
0 0 0
0 0 0
0 0 0
0 0 0
0 0 0
0 0 0
0 0 0
0 0 0
0 0 0
0 0 0
0 0 0
0 0 0
0 0 0
0 0 0
0 0 0
0 0 0
0 0 0
0 0 0
0 0 0
0 0 0
0 0 0
0 0 0
0 0 0
0 0 0
0 0 0
0 0 0
0 0 0
0 0 0
0 0 0
0 0 0
0 0 0
0 0 0
0 0 0
0 0 0
0 0 0
0 0 0
0 0 0
0 0 0
0 0 0
0 0 0
0 0 0
0 0 0
0 0 0
0 0 0
0 0 0
0 0 0
0 0 0
0 0 0
0 0 0
0 0 0
0 0 0
0 0 0
0 0 0
0 0 0
0 0 0
0 0 0
0 0 0
0 0 0
0 0 0
0 0 0
0 0 0
0 0 0
0 0 0
0 0 0
0 0 0
0 0 0
0 0 0
0 0 0
0 0 0
0 0 0
0 0 0
0 0 0
0 0 0
0 0 0
0 0 0
0 0 0
0 0 0
0 0 0
0 0 0
0 0 0
0 0 0
0 0 0
0 0 0
0 0 0
0 0 0
0 0 0
0 0 0
0 0 0
0 0 0
0 0 0
0 0 0
0 0 0
0 0 0
0 0 0
0 0 0
0 0 0
0 0 0
0 0 0
0 0 0
0 0 0
0 0 0
0 0 0
0 0 0
0 0 0
0 0 0
0 0 0
0 0 0
0 0 0
0 0 0
0 0 0
0 0 0
0 0 0
0 0 0
0 0 0
0 0 0
0 0 0
0 0 0
0 0 0
0 0 0
0 0 0
0 0 0
0 0 0
0 0 0
0 0 0
0 0 0
0 0 0
0 0 0
0 0 0
0 0 0
0 0 0
0 0 0
0 0 0
0 0 0
0 0 0
0 0 0
0 0 0
0 0 0
0 0 0
0 0 0
0 0 0
0 0 0
0 0 0
0 0 0
0 0 0
0 0 0
0 0 0
0 0 0
0 0 0
0 0 0
0 0 0
0 0 0
0 0 0
0 0 0
0 0 0
0 0 0
0 0 0
0 0 0
0 0 0
0 0 0
0 0 0
0 0 0
0 0 0
0 0 0
0 0 0
0 0 0
0 0 0
0 0 0
0 0 0
0 0 0
0 0 0
0 0 0
0 0 0
0 0 0
0 0 0
0 0 0
0 0 0
0 0 0
0 0 0
0 0 0
0 0 0
0 0 0
0 0 0
0 0 0
0 0 0
0 0 0
0 0 0
0 0 0
0 0 0
0 0 0
0 0 0
0 0 0
0 0 0
0 0 0
0 0 0
0 0 0
0 0 0
0 0 0
0 0 0
0 0 0
0 0 0
0 0 0
0 0 0
0 0 0
0 0 0
0 0 0
0 0 0
0 0 0
0 0 0
0 0 0
0 0 0
0 0 0
0 0 0
0 0 0
0 0 0
0 0 0
0 0 0
0 0 0
0 0 0
0 0 0
0 0 0
0 0 0
-0.000123811 -1.58683e-05 0.000170281
-0.000595148 -0.000150019 2.25853e-05
-0.00101411 -2.96347e-05 0.000175672
-0.00182754 -0.000124886 7.34092e-05
-0.00248426 -4.97459e-05 0.000158112
-0.00335797 -0.000105681 9.01048e-05
-0.00405026 -5.52874e-05 0.000134238
-0.0047962 -8.57844e-05 8.4969e-05
-0.00536053 -4.81186e-05 0.000105709
-0.00584849 -6.54522e-05 6.32194e-05
-0.00615881 -3.15452e-05 7.31014e-05
-0.00628488 -4.60091e-05 2.80279e-05
-0.00625001 -8.12639e-06 3.85632e-05
-0.00594319 -2.99568e-05 -1.7459e-05
-0.00553348 2.02918e-05 7.67286e-06
-0.0047976 -2.112e-05 -6.85016e-05
-0.00409444 5.24333e-05 -9.33551e-06
-0.00306686 -2.41674e-05 -0.000117621
-0.00229701 8.73977e-05 9.4198e-07
-0.00128112 -4.17218e-05 -0.000155628
-0.000762982 0.000131367 5.52153e-05
-0.000179216 -5.09583e-05 -0.000158517
0 0 0
0 0 0
-0.000155504 -0.000153936 0.000129355
-0.00095728 -0.000333716 -2.03364e-05
-0.00170686 -0.000222013 0.000146523
-0.00301509 -0.000247219 5.09983e-05
-0.00415833 -0.000169685 0.000137218
-0.00556331 -0.000182834 7.42557e-05
-0.00674011 -0.000150795 0.000115218
-0.00793983 -0.0001744 6.70687e-05
-0.00887844 -0.000175423 8.16222e-05
-0.00966034 -0.000213106 3.66882e-05
-0.0101582 -0.000235125 3.77168e-05
-0.0103555 -0.000284728 -1.20297e-05
-0.0102676 -0.000312881 -1.22615e-05
-0.00976968 -0.000365584 -7.25976e-05
-0.009049 -0.000376555 -5.80639e-05
-0.00786816 -0.000415728 -0.00013405
-0.00664754 -0.000376127 -8.10584e-05
-0.00500931 -0.000386276 -0.000180557
-0.00366596 -0.000263419 -5.79361e-05
-0.00204976 -0.000254683 -0.000199214
-0.00114327 -4.10983e-05 3.57144e-05
-0.000156337 -0.000121483 -0.00017445
0 0 0
0 0 0
-0.000147191 -0.000204809 0.000189196
-0.00119438 -0.000439 1.6852e-05
-0.00219319 -0.000332837 0.000215271
-0.00386055 -0.000374803 0.000101331
-0.00532884 -0.000278826 0.000200437
-0.00709297 -0.000297454 0.00012389
-0.00857615 -0.000252563 0.000169791
-0.0100671 -0.000282642 0.000111477
-0.0112326 -0.000279861 0.000127595
-0.0121922 -0.000327798 7.44753e-05
-0.0127962 -0.000352298 7.60574e-05
-0.0130253 -0.000415482 1.84249e-05
-0.0128964 -0.00044728 1.91602e-05
-0.0122671 -0.00051415 -5.09403e-05
-0.0113538 -0.000522252 -3.38629e-05
-0.00988704 -0.000571461 -0.000123982
-0.00835366 -0.000513922 -6.46158e-05
-0.0063256 -0.000526982 -0.000184938
-0.00462794 -0.000368708 -4.7578e-05
-0.0026184 -0.000358901 -0.000217597
-0.00143548 -0.000109696 5.05672e-05
-0.000197787 -0.000173835 -0.000192148
0 0 0
0 0 0
-0.000176251 -0.000320414 0.000167618
-0.00135614 -0.000578209 -1.54885e-05
-0.00251504 -0.000513514 0.000197925
-0.00442183 -0.000543658 7.97735e-05
-0.00611635 -0.000455715 0.000184962
-0.00812734 -0.000457463 0.000106626
-0.00982555 -0.000416312 0.000154002
-0.0115158 -0.000438585 9.37549e-05
-0.0128382 -0.000445206 0.000108468
-0.013917 -0.000495439 5.2367e-05
-0.0145899 -0.000535776 5.06381e-05
-0.0148359 -0.000606337 -1.09219e-05
-0.0146691 -0.000656505 -1.42073e-05
-0.0139418 -0.000726869 -8.84189e-05
-0.0128808 -0.000748985 -7.41029e-05
-0.0112075 -0.00078675 -0.000166903
-0.00944173 -0.000733122 -0.000105709
-0.00713836 -0.000712705 -0.000226402
-0.00519065 -0.000551589 -7.85666e-05
-0.00291755 -0.000490921 -0.000249493
-0.00157341 -0.000247226 4.25484e-05
-0.000195683 -0.000235994 -0.000209777
0 0 0
0 0 0
-0.000170924 -0.000333641 0.000197801
-0.00145616 -0.000600726 -3.77892e-06
-0.0027172 -0.000564755 0.000230654
-0.00479758 -0.000605479 0.000100745
-0.00664196 -0.000526113 0.000215171
-0.00882599 -0.000529115 0.000128804
-0.0106646 -0.000486228 0.000179603
-0.0124895 -0.000505149 0.000113276
-0.0139117 -0.000506483 0.000128624
-0.0150675 -0.000551475 6.73145e-05
-0.015782 -0.000585032 6.50966e-05
-0.0160348 -0.000649176 -1.67369e-06
-0.015841 -0.000691511 -5.41858e-06
-0.0150437 -0.000754741 -8.5856e-05
-0.0138861 -0.000769082 -7.07218e-05
-0.012071 -0.000801075 -0.000171528
-0.0101558 -0.000744024 -0.000106075
-0.00766597 -0.000723095 -0.00023741
-0.00555973 -0.000570473 -7.86285e-05
-0.00311426 -0.000514008 -0.000263935
-0.00166936 -0.000292411 5.00253e-05
-0.000216886 -0.000254139 -0.000221026
0 0 0
0 0 0
-0.000188075 -0.000369706 0.000185997
-0.00152111 -0.000625184 -2.52857e-05
-0.00284372 -0.00062143 0.000219772
-0.00503121 -0.000661164 8.42168e-05
-0.0069727 -0.000597925 0.00020426
-0.00927158 -0.000596081 0.000114868
-0.0112047 -0.000557208 0.000168254
-0.0131214 -0.000568473 9.99072e-05
-0.0146118 -0.000568032 0.00011593
-0.0158202 -0.000604064 5.26538e-05
-0.0165623 -0.00063324 4.99811e-05
-0.0168184 -0.000687039 -1.90634e-05
-0.0166031 -0.000724071 -2.35386e-05
-0.0157541 -0.000775246 -0.000106609
-0.0145245 -0.000785958 -9.11355e-05
-0.0126069 -0.000805719 -0.000194526
-0.0105842 -0.000752505 -0.000125645
-0.00796452 -0.000722365 -0.000259608
-0.00575303 -0.000588504 -9.21128e-05
-0.00319902 -0.000525139 -0.000281744
-0.0017028 -0.000335204 4.76177e-05
-0.000218346 -0.000266221 -0.000232323
0 0 0
0 0 0
-0.000184063 -0.000328074 0.000200444
-0.00155571 -0.000556335 -2.22823e-05
-0.00291203 -0.000568085 0.000234563
-0.00517278 -0.000608981 9.17743e-05
-0.00717463 -0.000559926 0.000217642
-0.00955113 -0.000559391 0.000123511
-0.0115445 -0.000524931 0.000179362
-0.0135225 -0.000532175 0.00010757
-0.0150563 -0.000527923 0.00012429
-0.0162993 -0.000554743 5.81136e-05
-0.0170588 -0.000574632 5.53773e-05
-0.0173163 -0.000615788 -1.65668e-05
-0.0170866 -0.000641813 -2.1165e-05
-0.016202 -0.000680519 -0.00010765
-0.0149258 -0.00068466 -9.14295e-05
-0.0129389 -0.000698172 -0.000199131
-0.0108476 -0.000651314 -0.000127312
-0.00814274 -0.000626321 -0.000266912
-0.00586696 -0.000517727 -9.26774e-05
-0.00324712 -0.000466856 -0.000289883
-0.00172269 -0.000314336 5.10842e-05
-0.000228462 -0.000241766 -0.000238595
0 0 0
0 0 0
-0.000192745 -0.000295675 0.000194006
-0.00157645 -0.000484637 -3.46598e-05
-0.0029508 -0.000507386 0.000228043
-0.00525171 -0.000542619 8.13092e-05
-0.00728888 -0.000507904 0.000210861
-0.00971307 -0.000506268 0.000114486
-0.0117441 -0.000478194 0.000172439
-0.0137617 -0.00048083 9.93136e-05
-0.0153239 -0.000474938 0.000117084
-0.0165898 -0.000492592 4.98548e-05
-0.0173608 -0.000505356 4.75784e-05
-0.017619 -0.000534093 -2.54969e-05
-0.0173791 -0.000551477 -2.9763e-05
-0.0164699 -0.000577794 -0.000117647
-0.0151614 -0.000577977 -0.000100446
-0.0131273 -0.000584314 -0.000209846
-0.0109903 -0.000545819 -0.000135382
-0.00822983 -0.00052285 -0.000277192
-0.00591506 -0.000439351 -9.77029e-05
-0.00325773 -0.000396495 -0.000298316
-0.00172248 -0.000279909 5.05563e-05
-0.000229962 -0.000209436 -0.000244441
0 0 0
0 0 0
-0.000190326 -0.00021446 0.000200274
-0.00158496 -0.000354738 -3.4161e-05
-0.00296693 -0.00037582 0.000234172
-0.00529339 -0.000403918 8.36435e-05
-0.00735045 -0.000380649 0.000216303
-0.00980473 -0.000380066 0.000117454
-0.0118583 -0.000359425 0.000176904
-0.013901 -0.000360543 0.000102035
-0.0154805 -0.000354803 0.000120383
-0.0167609 -0.000366008 5.17299e-05
-0.017539 -0.000373182 4.9617e-05
-0.0177977 -0.000391999 -2.48665e-05
-0.0175517 -0.000402308 -2.90074e-05
-0.0166268 -0.000419444 -0.000118551
-0.0152986 -0.000417835 -0.000100756
-0.0132347 -0.000421529 -0.000212279
-0.0110703 -0.000393762 -0.00013611
-0.00827594 -0.000378189 -0.000280727
-0.00593917 -0.000320698 -9.77798e-05
-0.00326135 -0.000291606 -0.000302109
-0.00172154 -0.000210966 5.20079e-05
-0.00023438 -0.000155946 -0.000247526
0 0 0
0 0 0
-0.000193841 -0.000142325 0.0001974
-0.00158958 -0.000228863 -3.96468e-05
-0.00297484 -0.000245255 0.000231137
-0.00531291 -0.000262724 7.8733e-05
-0.00737991 -0.000249799 0.000213132
-0.00985019 -0.000248998 0.000113178
-0.011916 -0.000236223 0.00017374
-0.013973 -0.000235845 9.82445e-05
-0.0155623 -0.000231429 0.000117257
-0.0168514 -0.000236885 4.81663e-05
-0.0176337 -0.000240033 4.64686e-05
-0.0178927 -0.00024996 -2.84617e-05
-0.017643 -0.000254928 -3.2235e-05
-0.0167087 -0.00026377 -0.000122366
-0.0153688 -0.000261679 -0.000103921
-0.0132872 -0.000262548 -0.000216252
-0.0111069 -0.000245262 -0.00013875
-0.00829329 -0.000234971 -0.00028452
-0.00594496 -0.000200797 -9.9237e-05
-0.00325717 -0.000182599 -0.000305274
-0.001717 -0.000134768 5.20035e-05
-0.000235178 -9.87344e-05 -0.000249876
0 0 0
0 0 0
-0.00019304 -4.2322e-05 0.000199132
-0.00159067 -7.12835e-05 -3.96245e-05
-0.00297669 -7.63257e-05 0.000232788
-0.00532048 -8.25128e-05 7.92225e-05
-0.00739168 -7.81967e-05 0.000214584
-0.00986945 -7.82292e-05 0.000113868
-0.0119407 -7.40658e-05 0.000174928
-0.0140043 -7.41921e-05 9.89041e-05
-0.0155982 -7.28282e-05 0.000118137
-0.0168912 -7.48497e-05 4.86226e-05
-0.0176755 -7.59831e-05 4.70169e-05
-0.0179346 -7.94635e-05 -2.8329e-05
-0.0176833 -8.11933e-05 -3.20219e-05
-0.0167447 -8.43488e-05 -0.000122645
-0.0153995 -8.37926e-05 -0.000103976
-0.0133099 -8.44354e-05 -0.000216946
-0.0111227 -7.8982e-05 -0.000138891
-0.00830045 -7.61082e-05 -0.000285515
-0.00594723 -6.52166e-05 -9.919e-05
-0.00325532 -5.97404e-05 -0.000306345
-0.00171519 -4.42707e-05 5.24018e-05
-0.000236407 -3.23461e-05 -0.000250792
0 0 0
0 0 0
-0.00019304 4.2322e-05 0.000199132
-0.00159067 7.12835e-05 -3.96245e-05
-0.00297669 7.63257e-05 0.000232788
-0.00532048 8.25128e-05 7.92225e-05
-0.00739168 7.81967e-05 0.000214584
-0.00986945 7.82292e-05 0.000113868
-0.0119407 7.40658e-05 0.000174928
-0.0140043 7.41921e-05 9.89041e-05
-0.0155982 7.28282e-05 0.000118137
-0.0168912 7.48497e-05 4.86226e-05
-0.0176755 7.59831e-05 4.70169e-05
-0.0179346 7.94635e-05 -2.8329e-05
-0.0176833 8.11933e-05 -3.20219e-05
-0.0167447 8.43488e-05 -0.000122645
-0.0153995 8.37926e-05 -0.000103976
-0.0133099 8.44354e-05 -0.000216946
-0.0111227 7.8982e-05 -0.000138891
-0.00830045 7.61082e-05 -0.000285515
-0.00594723 6.52166e-05 -9.919e-05
-0.00325532 5.97404e-05 -0.000306345
-0.00171519 4.42707e-05 5.24018e-05
-0.000236407 3.23461e-05 -0.000250792
0 0 0
0 0 0
-0.000193841 0.000142325 0.0001974
-0.00158958 0.000228863 -3.96468e-05
-0.00297484 0.000245255 0.000231137
-0.00531291 0.000262724 7.8733e-05
-0.00737991 0.000249799 0.000213132
-0.00985019 0.000248998 0.000113178
-0.011916 0.000236223 0.00017374
-0.013973 0.000235845 9.82445e-05
-0.0155623 0.000231429 0.000117257
-0.0168514 0.000236885 4.81663e-05
-0.0176337 0.000240033 4.64686e-05
-0.0178927 0.00024996 -2.84617e-05
-0.017643 0.000254928 -3.2235e-05
-0.0167087 0.00026377 -0.000122366
-0.0153688 0.000261679 -0.000103921
-0.0132872 0.000262548 -0.000216252
-0.0111069 0.000245262 -0.00013875
-0.00829329 0.000234971 -0.00028452
-0.00594496 0.000200797 -9.9237e-05
-0.00325717 0.000182599 -0.000305274
-0.001717 0.000134768 5.20035e-05
-0.000235178 9.87344e-05 -0.000249876
0 0 0
0 0 0
-0.000190326 0.00021446 0.000200274
-0.00158496 0.000354738 -3.4161e-05
-0.00296693 0.00037582 0.000234172
-0.00529339 0.000403918 8.36435e-05
-0.00735045 0.000380649 0.000216303
-0.00980473 0.000380066 0.000117454
-0.0118583 0.000359425 0.000176904
-0.013901 0.000360543 0.000102035
-0.0154805 0.000354803 0.000120383
-0.0167609 0.000366008 5.17299e-05
-0.017539 0.000373182 4.9617e-05
-0.0177977 0.000391999 -2.48665e-05
-0.0175517 0.000402308 -2.90074e-05
-0.0166268 0.000419444 -0.000118551
-0.0152986 0.000417835 -0.000100756
-0.0132347 0.000421529 -0.000212279
-0.0110703 0.000393762 -0.00013611
-0.00827594 0.000378189 -0.000280727
-0.00593917 0.000320698 -9.77798e-05
-0.00326135 0.000291606 -0.000302109
-0.00172154 0.000210966 5.20079e-05
-0.00023438 0.000155946 -0.000247526
0 0 0
0 0 0
-0.000192745 0.000295675 0.000194006
-0.00157645 0.000484637 -3.46598e-05
-0.0029508 0.000507386 0.000228043
-0.00525171 0.000542619 8.13092e-05
-0.00728888 0.000507904 0.000210861
-0.00971307 0.000506268 0.000114486
-0.0117441 0.000478194 0.000172439
-0.0137617 0.00048083 9.93136e-05
-0.0153239 0.000474938 0.000117084
-0.0165898 0.000492592 4.98548e-05
-0.0173608 0.000505356 4.75784e-05
-0.017619 0.000534093 -2.54969e-05
-0.0173791 0.000551477 -2.9763e-05
-0.0164699 0.000577794 -0.000117647
-0.0151614 0.000577977 -0.000100446
-0.0131273 0.000584314 -0.000209846
-0.0109903 0.000545819 -0.000135382
-0.00822983 0.00052285 -0.000277192
-0.00591506 0.000439351 -9.77029e-05
-0.00325773 0.000396495 -0.000298316
-0.00172248 0.000279909 5.05563e-05
-0.000229962 0.000209436 -0.000244441
0 0 0
0 0 0
-0.000184063 0.000328074 0.000200444
-0.00155571 0.000556335 -2.22823e-05
-0.00291203 0.000568085 0.000234563
-0.00517278 0.000608981 9.17743e-05
-0.00717463 0.000559926 0.000217642
-0.00955113 0.000559391 0.000123511
-0.0115445 0.000524931 0.000179362
-0.0135225 0.000532175 0.00010757
-0.0150563 0.000527923 0.00012429
-0.0162993 0.000554743 5.81136e-05
-0.0170588 0.000574632 5.53773e-05
-0.0173163 0.000615788 -1.65668e-05
-0.0170866 0.000641813 -2.1165e-05
-0.016202 0.000680519 -0.00010765
-0.0149258 0.00068466 -9.14295e-05
-0.0129389 0.000698172 -0.000199131
-0.0108476 0.000651314 -0.000127312
-0.00814274 0.000626321 -0.000266912
-0.00586696 0.000517727 -9.26774e-05
-0.00324712 0.000466856 -0.000289883
-0.00172269 0.000314336 5.10842e-05
-0.000228462 0.000241766 -0.000238595
0 0 0
0 0 0
-0.000188075 0.000369706 0.000185997
-0.00152111 0.000625184 -2.52857e-05
-0.00284372 0.00062143 0.000219772
-0.00503121 0.000661164 8.42168e-05
-0.0069727 0.000597925 0.00020426
-0.00927158 0.000596081 0.000114868
-0.0112047 0.000557208 0.000168254
-0.0131214 0.000568473 9.99072e-05
-0.0146118 0.000568032 0.00011593
-0.0158202 0.000604064 5.26538e-05
-0.0165623 0.00063324 4.99811e-05
-0.0168184 0.000687039 -1.90634e-05
-0.0166031 0.000724071 -2.35386e-05
-0.0157541 0.000775246 -0.000106609
-0.0145245 0.000785958 -9.11355e-05
-0.0126069 0.000805719 -0.000194526
-0.0105842 0.000752505 -0.000125645
-0.00796452 0.000722365 -0.000259608
-0.00575303 0.000588504 -9.21128e-05
-0.00319902 0.000525139 -0.000281744
-0.0017028 0.000335204 4.76177e-05
-0.000218346 0.000266221 -0.000232323
0 0 0
0 0 0
-0.000170924 0.000333641 0.000197801
-0.00145616 0.000600726 -3.77892e-06
-0.0027172 0.000564755 0.000230654
-0.00479758 0.000605479 0.000100745
-0.00664196 0.000526113 0.000215171
-0.00882599 0.000529115 0.000128804
-0.0106646 0.000486228 0.000179603
-0.0124895 0.000505149 0.000113276
-0.0139117 0.000506483 0.000128624
-0.0150675 0.000551475 6.73145e-05
-0.015782 0.000585032 6.50966e-05
-0.0160348 0.000649176 -1.67369e-06
-0.015841 0.000691511 -5.41858e-06
-0.0150437 0.000754741 -8.5856e-05
-0.0138861 0.000769082 -7.07218e-05
-0.012071 0.000801075 -0.000171528
-0.0101558 0.000744024 -0.000106075
-0.00766597 0.000723095 -0.00023741
-0.00555973 0.000570473 -7.86285e-05
-0.00311426 0.000514008 -0.000263935
-0.00166936 0.000292411 5.00253e-05
-0.000216886 0.000254139 -0.000221026
0 0 0
0 0 0
-0.000176251 0.000320414 0.000167618
-0.00135614 0.000578209 -1.54885e-05
-0.00251504 0.000513514 0.000197925
-0.00442183 0.000543658 7.97735e-05
-0.00611635 0.000455715 0.000184962
-0.00812734 0.000457463 0.000106626
-0.00982555 0.000416312 0.000154002
-0.0115158 0.000438585 9.37549e-05
-0.0128382 0.000445206 0.000108468
-0.013917 0.000495439 5.2367e-05
-0.0145899 0.000535776 5.06381e-05
-0.0148359 0.000606337 -1.09219e-05
-0.0146691 0.000656505 -1.42073e-05
-0.0139418 0.000726869 -8.84189e-05
-0.0128808 0.000748985 -7.41029e-05
-0.0112075 0.00078675 -0.000166903
-0.00944173 0.000733122 -0.000105709
-0.00713836 0.000712705 -0.000226402
-0.00519065 0.000551589 -7.85666e-05
-0.00291755 0.000490921 -0.000249493
-0.00157341 0.000247226 4.25484e-05
-0.000195683 0.000235994 -0.000209777
0 0 0
0 0 0
-0.000147191 0.000204809 0.000189196
-0.00119438 0.000439 1.6852e-05
-0.00219319 0.000332837 0.000215271
-0.00386055 0.000374803 0.000101331
-0.00532884 0.000278826 0.000200437
-0.00709297 0.000297454 0.00012389
-0.00857615 0.000252563 0.000169791
-0.0100671 0.000282642 0.000111477
-0.0112326 0.000279861 0.000127595
-0.0121922 0.000327798 7.44753e-05
-0.0127962 0.000352298 7.60574e-05
-0.0130253 0.000415482 1.84249e-05
-0.0128964 0.00044728 1.91602e-05
-0.0122671 0.00051415 -5.09403e-05
-0.0113538 0.000522252 -3.38629e-05
-0.00988704 0.000571461 -0.000123982
-0.00835366 0.000513922 -6.46158e-05
-0.0063256 0.000526982 -0.000184938
-0.00462794 0.000368708 -4.7578e-05
-0.0026184 0.000358901 -0.000217597
-0.00143548 0.000109696 5.05672e-05
-0.000197787 0.000173835 -0.000192148
0 0 0
0 0 0
-0.000155504 0.000153936 0.000129355
-0.00095728 0.000333716 -2.03364e-05
-0.00170686 0.000222013 0.000146523
-0.00301509 0.000247219 5.09983e-05
-0.00415833 0.000169685 0.000137218
-0.00556331 0.000182834 7.42557e-05
-0.00674011 0.000150795 0.000115218
-0.00793983 0.0001744 6.70687e-05
-0.00887844 0.000175423 8.16222e-05
-0.00966034 0.000213106 3.66882e-05
-0.0101582 0.000235125 3.77168e-05
-0.0103555 0.000284728 -1.20297e-05
-0.0102676 0.000312881 -1.22615e-05
-0.00976968 0.000365584 -7.25976e-05
-0.009049 0.000376555 -5.80639e-05
-0.00786816 0.000415728 -0.00013405
-0.00664754 0.000376127 -8.10584e-05
-0.00500931 0.000386276 -0.000180557
-0.00366596 0.000263419 -5.79361e-05
-0.00204976 0.000254683 -0.000199214
-0.00114327 4.10983e-05 3.57144e-05
-0.000156337 0.000121483 -0.00017445
0 0 0
0 0 0
-0.000123811 1.58683e-05 0.000170281
-0.000595148 0.000150019 2.25853e-05
-0.00101411 2.96347e-05 0.000175672
-0.00182754 0.000124886 7.34092e-05
-0.00248426 4.97459e-05 0.000158112
-0.00335797 0.000105681 9.01048e-05
-0.00405026 5.52874e-05 0.000134238
-0.0047962 8.57844e-05 8.4969e-05
-0.00536053 4.81186e-05 0.000105709
-0.00584849 6.54522e-05 6.32194e-05
-0.00615881 3.15452e-05 7.31014e-05
-0.00628488 4.60091e-05 2.80279e-05
-0.00625001 8.12639e-06 3.85632e-05
-0.00594319 2.99568e-05 -1.7459e-05
-0.00553348 -2.02918e-05 7.67286e-06
-0.0047976 2.112e-05 -6.85016e-05
-0.00409444 -5.24333e-05 -9.33551e-06
-0.00306686 2.41674e-05 -0.000117621
-0.00229701 -8.73977e-05 9.4198e-07
-0.00128112 4.17218e-05 -0.000155628
-0.000762982 -0.000131367 5.52153e-05
-0.000179216 5.09583e-05 -0.000158517
0 0 0
0 0 0
0 0 0
0 0 0
0 0 0
0 0 0
0 0 0
0 0 0
0 0 0
0 0 0
0 0 0
0 0 0
0 0 0
0 0 0
0 0 0
0 0 0
0 0 0
0 0 0
0 0 0
0 0 0
0 0 0
0 0 0
0 0 0
0 0 0
0 0 0
0 0 0
0 0 0
0 0 0
0 0 0
0 0 0
0 0 0
0 0 0
0 0 0
0 0 0
0 0 0
0 0 0
0 0 0
0 0 0
0 0 0
0 0 0
0 0 0
0 0 0
0 0 0
0 0 0
0 0 0
0 0 0
0 0 0
0 0 0
0 0 0
0 0 0
-1.69532e-05 9.50448e-05 0.000804391
-0.000892285 -5.00966e-05 0.00103255
-0.00165714 0.000106923 0.00145705
-0.00303699 1.54158e-05 0.00151902
-0.0042206 9.90394e-05 0.00164911
-0.0056838 3.97702e-05 0.00157274
-0.00690241 8.0538e-05 0.00152251
-0.00814943 3.52381e-05 0.00135021
-0.00912638 5.06066e-05 0.00118343
-0.00994576 8.62685e-06 0.000932509
-0.0104753 1.1646e-05 0.000680394
-0.0106964 -3.37391e-05 0.000359995
-0.0106269 -3.05284e-05 5.48385e-05
-0.0101298 -8.41624e-05 -0.000308523
-0.00940501 -6.53972e-05 -0.0006023
-0.00819016 -0.000132101 -0.000946363
-0.00693696 -7.6465e-05 -0.00111496
-0.00522477 -0.00016503 -0.00134581
-0.00382871 -4.62375e-05 -0.00124059
-0.00211124 -0.000177059 -0.00128003
-0.00116668 4.02374e-05 -0.000786005
-8.72305e-05 -0.000160661 -0.000707886
0 0 0
0 0 0
-5.45599e-05 -0.000171795 0.00113219
-0.00153648 -0.000424551 0.00159163
-0.00293198 -0.000259144 0.00227083
-0.00521227 -0.000269384 0.00244797
-0.00729098 -0.000158073 0.00264077
-0.00971114 -0.000167507 0.00254454
-0.011807 -0.000136469 0.00243204
-0.0138666 -0.000181285 0.00214837
-0.0155157 -0.000211964 0.001838
-0.0168597 -0.000292891 0.00140936
-0.0177248 -0.000364843 0.000954049
-0.0180734 -0.000472011 0.000406865
-0.0179092 -0.000558183 -0.000138049
-0.0170734 -0.000669092 -0.000746686
-0.015792 -0.000726468 -0.00127086
-0.0137854 -0.000802292 -0.00181921
-0.0115996 -0.000768599 -0.00212911
-0.00879448 -0.000770762 -0.00243798
-0.00634816 -0.000587233 -0.00228581
-0.00354745 -0.00052694 -0.00220785
-0.00186171 -0.000186909 -0.00141555
-6.06034e-05 -0.000258555 -0.00110034
0 0 0
0 0 0
-2.83382e-05 -0.0002684 0.00141218
-0.00197881 -0.000614458 0.002037
-0.00385814 -0.000468208 0.00291099
-0.00680669 -0.000497905 0.00316718
-0.00951499 -0.00036289 0.00340586
-0.0126046 -0.00037379 0.00328309
-0.0152896 -0.000327169 0.00311613
-0.0178931 -0.000379326 0.00273531
-0.0199758 -0.000410163 0.00230773
-0.0216529 -0.000508248 0.00173406
-0.022719 -0.00059192 0.00111965
-0.023129 -0.000723026 0.000395179
-0.0228839 -0.000823398 -0.000330446
-0.0218046 -0.000957442 -0.00112514
-0.0201507 -0.00101742 -0.00181638
-0.0176116 -0.00110391 -0.00251658
-0.0148188 -0.0010458 -0.00292113
-0.0112856 -0.00103865 -0.00328699
-0.00814745 -0.000799411 -0.00308533
-0.00460791 -0.0007171 -0.00291967
-0.00238661 -0.000317776 -0.00188991
-8.64583e-05 -0.000350207 -0.00139437
0 0 0
0 0 0
-5.56196e-05 -0.000474844 0.00149267
-0.00228844 -0.000880001 0.0021987
-0.00449071 -0.000802318 0.00319956
-0.00789762 -0.000827562 0.00351394
-0.0110484 -0.000700713 0.00378667
-0.0146045 -0.000689874 0.00365186
-0.0177031 -0.000640692 0.00344893
-0.0206817 -0.000679089 0.0030051
-0.023063 -0.000714002 0.00249659
-0.0249637 -0.000810406 0.00182469
-0.0261598 -0.000906492 0.00109903
-0.0266013 -0.00104211 0.000253371
-0.0262838 -0.00115739 -0.000598355
-0.0250215 -0.00129031 -0.00151765
-0.0230872 -0.0013574 -0.00232181
-0.020163 -0.00142259 -0.00311446
-0.0169262 -0.00135607 -0.00357277
-0.0128773 -0.00129984 -0.00395193
-0.00925218 -0.00104359 -0.00369292
-0.00521254 -0.000893596 -0.00343184
-0.00266085 -0.000493841 -0.00221445
-7.49072e-05 -0.000423527 -0.0015801
0 0 0
0 0 0
-4.34936e-05 -0.000517536 0.00155889
-0.00248551 -0.000945621 0.00229739
-0.00489982 -0.000920009 0.00338604
-0.00863502 -0.000965981 0.0037313
-0.0120858 -0.00085408 0.0040297
-0.0159692 -0.000844309 0.00388119
-0.0193452 -0.000790688 0.00365337
-0.0225796 -0.000820637 0.00316129
-0.0251565 -0.000844119 0.00259533
-0.0272036 -0.000928169 0.00185131
-0.0284799 -0.0010097 0.00104721
-0.0289347 -0.00113047 0.000114357
-0.0285622 -0.00122893 -0.000824689
-0.0271674 -0.00134524 -0.00183219
-0.0250416 -0.00139529 -0.00271127
-0.0218487 -0.00144613 -0.00356783
-0.018315 -0.00137028 -0.00405484
-0.013912 -0.00131007 -0.00444141
-0.00996789 -0.00106557 -0.00412875
-0.00559565 -0.000923143 -0.00380147
-0.00283669 -0.000558078 -0.00243997
-8.26276e-05 -0.000447618 -0.00171768
0 0 0
0 0 0
-5.92271e-05 -0.000578805 0.00154671
-0.00261393 -0.000996304 0.00228712
-0.00515872 -0.00102147 0.0034259
-0.00910193 -0.0010739 0.00378988
-0.0127487 -0.000985723 0.00410669
-0.0168501 -0.000971187 0.00395249
-0.0204121 -0.000919315 0.00371207
-0.0238194 -0.000935266 0.00319271
-0.0265281 -0.000948815 0.00259291
-0.0286737 -0.00101349 0.0018057
-0.0300024 -0.001079 0.000953381
-0.0304631 -0.00117663 -3.30576e-05
-0.0300481 -0.00125673 -0.00102652
-0.0285567 -0.00134773 -0.00208792
-0.026292 -0.00138283 -0.00301221
-0.0229078 -0.00141196 -0.0039044
-0.019165 -0.00133617 -0.00440318
-0.0145184 -0.00126612 -0.0047848
-0.0103633 -0.00104989 -0.0044268
-0.00578091 -0.000908522 -0.00404599
-0.00290865 -0.000595117 -0.00258282
-7.54545e-05 -0.000447778 -0.00180086
0 0 0
0 0 0
-5.34998e-05 -0.000523961 0.0015411
-0.0026865 -0.000899665 0.00227002
-0.00530668 -0.000948684 0.00343957
-0.00938804 -0.00100668 0.00381065
-0.0131585 -0.000940204 0.00414049
-0.0174053 -0.000929092 0.00398096
-0.0210874 -0.00088193 0.00373356
-0.0246096 -0.000890066 0.00319585
-0.0274035 -0.000893742 0.00257495
-0.0296136 -0.000940392 0.00175939
-0.0309754 -0.00098616 0.000876512
-0.0314381 -0.00105933 -0.000144894
-0.0309939 -0.00111643 -0.0011727
-0.0294356 -0.00118341 -0.002269
-0.0270785 -0.00120309 -0.00322065
-0.0235647 -0.00122031 -0.00413547
-0.0196857 -0.00115176 -0.00463826
-0.0148783 -0.00109229 -0.0050161
-0.0105918 -0.000916397 -0.00462368
-0.00588019 -0.000801975 -0.00420917
-0.00294538 -0.000549589 -0.00267597
-7.67003e-05 -0.000403336 -0.00185936
0 0 0
0 0 0
-6.19966e-05 -0.00046899 0.001512
-0.00272944 -0.000782172 0.00222496
-0.00539073 -0.000843202 0.00340943
-0.00955057 -0.000895894 0.0037839
-0.0133944 -0.00084982 0.00412291
-0.0177309 -0.000839511 0.00396209
-0.0214881 -0.00079984 0.0037133
-0.0250838 -0.000800436 0.00316739
-0.0279326 -0.000797471 0.0025368
-0.0301848 -0.000826986 0.00170702
-0.031568 -0.000856113 0.00080841
-0.0320316 -0.000905853 -0.000231578
-0.0315673 -0.000943418 -0.00127782
-0.0299635 -0.000987718 -0.00239295
-0.0275442 -0.000996271 -0.00335881
-0.0239435 -0.00100226 -0.00428481
-0.0199751 -0.000944786 -0.00478703
-0.0150645 -0.00089386 -0.00515962
-0.0106981 -0.000758904 -0.00474283
-0.00591238 -0.000667129 -0.00430568
-0.00294948 -0.00047477 -0.00272821
-7.2797e-05 -0.000340948 -0.00189112
0 0 0
0 0 0
-5.95629e-05 -0.000344966 0.00149563
-0.00274963 -0.000578003 0.00219383
-0.00543071 -0.000631011 0.00338634
-0.00963815 -0.000673977 0.00376077
-0.0135239 -0.000643993 0.00410583
-0.0179158 -0.00063735 0.00394383
-0.021718 -0.0006078 0.00369504
-0.0253598 -0.000606288 0.00314438
-0.0282422 -0.000601085 0.00250876
-0.030521 -0.000618996 0.00167079
-0.0319174 -0.000635893 0.000763471
-0.0323814 -0.000667667 -0.000287317
-0.0319046 -0.000690261 -0.00134388
-0.0302719 -0.000718202 -0.00247
-0.0278139 -0.000720741 -0.0034435
-0.0241586 -0.000722837 -0.00437604
-0.020136 -0.000680871 -0.00487676
-0.0151623 -0.000645486 -0.00524641
-0.0107502 -0.000552427 -0.00481377
-0.00592323 -0.000489546 -0.00436416
-0.00294783 -0.000356174 -0.00275942
-7.257e-05 -0.000253416 -0.00191208
0 0 0
0 0 0
-6.32504e-05 -0.000225545 0.00147754
-0.00276005 -0.000369686 0.0021649
-0.00544999 -0.000407254 0.00336038
-0.00968024 -0.000434507 0.00373458
-0.0135874 -0.000418082 0.00408346
-0.0180089 -0.000413503 0.00392171
-0.0218358 -0.000394932 0.00367419
-0.0255036 -0.000392203 0.0031223
-0.0284052 -0.000387173 0.00248544
-0.0306994 -0.00039558 0.00164445
-0.0321037 -0.000403418 0.000733823
-0.032568 -0.000419926 -0.000321515
-0.0320838 -0.000431074 -0.00138246
-0.030434 -0.000445256 -0.00251345
-0.0279534 -0.000444675 -0.00349006
-0.0242662 -0.000443814 -0.00442525
-0.0202127 -0.000417641 -0.00492424
-0.0152036 -0.000395396 -0.00529165
-0.0107673 -0.000340398 -0.00484967
-0.00591996 -0.000302314 -0.00439316
-0.00294112 -0.000223593 -0.00277365
-7.09478e-05 -0.000157852 -0.0019214
0 0 0
0 0 0
-6.2585e-05 -6.95883e-05 0.00147069
-0.00276338 -0.000117803 0.0021524
-0.00545626 -0.000130135 0.00334912