# vtk DataFile Version 3.0
CFD lid driven cavity 3D
ASCII
DATASET STRUCTURED_POINTS
DIMENSIONS 25 25 25
ORIGIN 0 0 0
SPACING 0.0416667 0.0416667 0.0416667
CELL_DATA 13824
VECTORS velocity double
0 0 0
0 0 0
0 0 0
0 0 0
0 0 0
0 0 0
0 0 0
0 0 0
0 0 0
0 0 0
0 0 0
0 0 0
0 0 0
0 0 0
0 0 0
0 0 0
0 0 0
0 0 0
0 0 0
0 0 0
0 0 0
0 0 0
0 0 0
0 0 0
0 0 0
0 0 0
0 0 0
0 0 0
0 0 0
0 0 0
0 0 0
0 0 0
0 0 0
0 0 0
0 0 0
0 0 0
0 0 0
0 0 0
0 0 0
0 0 0
0 0 0
0 0 0
0 0 0
0 0 0
0 0 0
0 0 0
0 0 0
0 0 0
0 0 0
0 0 0
0 0 0
0 0 0
0 0 0
0 0 0
0 0 0
0 0 0
0 0 0
0 0 0
0 0 0
0 0 0
0 0 0
0 0 0
0 0 0
0 0 0
0 0 0
0 0 0
0 0 0
0 0 0
0 0 0
0 0 0
0 0 0
0 0 0
0 0 0
0 0 0
0 0 0
0 0 0
0 0 0
0 0 0
0 0 0
0 0 0
0 0 0
0 0 0
0 0 0
0 0 0
0 0 0
0 0 0
0 0 0
0 0 0
0 0 0
0 0 0
0 0 0
0 0 0
0 0 0
0 0 0
0 0 0
0 0 0
0 0 0
0 0 0
0 0 0
0 0 0
0 0 0
0 0 0
0 0 0
0 0 0
0 0 0
0 0 0
0 0 0
0 0 0
0 0 0
0 0 0
0 0 0
0 0 0
0 0 0
0 0 0
0 0 0
0 0 0
0 0 0
0 0 0
0 0 0
0 0 0
0 0 0
0 0 0
0 0 0
0 0 0
0 0 0
0 0 0
0 0 0
0 0 0
0 0 0
0 0 0
0 0 0
0 0 0
0 0 0
0 0 0
0 0 0
0 0 0
0 0 0
0 0 0
0 0 0
0 0 0
0 0 0
0 0 0
0 0 0
0 0 0
0 0 0
0 0 0
0 0 0
0 0 0
0 0 0
0 0 0
0 0 0
0 0 0
0 0 0
0 0 0
0 0 0
0 0 0
0 0 0
0 0 0
0 0 0
0 0 0
0 0 0
0 0 0
0 0 0
0 0 0
0 0 0
0 0 0
0 0 0
0 0 0
0 0 0
0 0 0
0 0 0
0 0 0
0 0 0
0 0 0
0 0 0
0 0 0
0 0 0
0 0 0
0 0 0
0 0 0
0 0 0
0 0 0
0 0 0
0 0 0
0 0 0
0 0 0
0 0 0
0 0 0
0 0 0
0 0 0
0 0 0
0 0 0
0 0 0
0 0 0
0 0 0
0 0 0
0 0 0
0 0 0
0 0 0
0 0 0
0 0 0
0 0 0
0 0 0
0 0 0
0 0 0
0 0 0
0 0 0
0 0 0
0 0 0
0 0 0
0 0 0
0 0 0
0 0 0
0 0 0
0 0 0
0 0 0
0 0 0
0 0 0
0 0 0
0 0 0
0 0 0
0 0 0
0 0 0
0 0 0
0 0 0
0 0 0
0 0 0
0 0 0
0 0 0
0 0 0
0 0 0
0 0 0
0 0 0
0 0 0
0 0 0
0 0 0
0 0 0
0 0 0
0 0 0
0 0 0
0 0 0
0 0 0
0 0 0
0 0 0
0 0 0
0 0 0
0 0 0
0 0 0
0 0 0
0 0 0
0 0 0
0 0 0
0 0 0
0 0 0
0 0 0
0 0 0
0 0 0
0 0 0
0 0 0
0 0 0
0 0 0
0 0 0
0 0 0
0 0 0
0 0 0
0 0 0
0 0 0
0 0 0
0 0 0
0 0 0
0 0 0
0 0 0
0 0 0
0 0 0
0 0 0
0 0 0
0 0 0
0 0 0
0 0 0
0 0 0
0 0 0
0 0 0
0 0 0
0 0 0
0 0 0
0 0 0
0 0 0
0 0 0
0 0 0
0 0 0
0 0 0
0 0 0
0 0 0
0 0 0
0 0 0
0 0 0
0 0 0
0 0 0
0 0 0
0 0 0
0 0 0
0 0 0
0 0 0
0 0 0
0 0 0
0 0 0
0 0 0
0 0 0
0 0 0
0 0 0
0 0 0
0 0 0
0 0 0
0 0 0
0 0 0
0 0 0
0 0 0
0 0 0
0 0 0
0 0 0
0 0 0
0 0 0
0 0 0
0 0 0
0 0 0
0 0 0
0 0 0
0 0 0
0 0 0
0 0 0
0 0 0
0 0 0
0 0 0
0 0 0
0 0 0
0 0 0
0 0 0
0 0 0
0 0 0
0 0 0
0 0 0
0 0 0
0 0 0
0 0 0
0 0 0
0 0 0
0 0 0
0 0 0
0 0 0
0 0 0
0 0 0
0 0 0
0 0 0
0 0 0
0 0 0
0 0 0
0 0 0
0 0 0
0 0 0
0 0 0
0 0 0
0 0 0
0 0 0
0 0 0
0 0 0
0 0 0
0 0 0
0 0 0
0 0 0
0 0 0
0 0 0
0 0 0
0 0 0
0 0 0
0 0 0
0 0 0
0 0 0
0 0 0
0 0 0
0 0 0
0 0 0
0 0 0
0 0 0
0 0 0
0 0 0
0 0 0
0 0 0
0 0 0
0 0 0
0 0 0
0 0 0
0 0 0
0 0 0
0 0 0
0 0 0
0 0 0
0 0 0
0 0 0
0 0 0
0 0 0
0 0 0
0 0 0
0 0 0
0 0 0
0 0 0
0 0 0
0 0 0
0 0 0
0 0 0
0 0 0
0 0 0
0 0 0
0 0 0
0 0 0
0 0 0
0 0 0
0 0 0
0 0 0
0 0 0
0 0 0
0 0 0
0 0 0
0 0 0
0 0 0
0 0 0
0 0 0
0 0 0
0 0 0
0 0 0
0 0 0
0 0 0
0 0 0
0 0 0
0 0 0
0 0 0
0 0 0
0 0 0
0 0 0
0 0 0
0 0 0
0 0 0
0 0 0
0 0 0
0 0 0
0 0 0
0 0 0
0 0 0
0 0 0
0 0 0
0 0 0
0 0 0
0 0 0
0 0 0
0 0 0
0 0 0
0 0 0
0 0 0
0 0 0
0 0 0
0 0 0
0 0 0
0 0 0
0 0 0
0 0 0
0 0 0
0 0 0
0 0 0
0 0 0
0 0 0
0 0 0
0 0 0
0 0 0
0 0 0
0 0 0
0 0 0
0 0 0
0 0 0
0 0 0
0 0 0
0 0 0
0 0 0
0 0 0
0 0 0
0 0 0
0 0 0
0 0 0
0 0 0
0 0 0
0 0 0
0 0 0
0 0 0
0 0 0
0 0 0
0 0 0
0 0 0
0 0 0
0 0 0
0 0 0
0 0 0
0 0 0
0 0 0
0 0 0
0 0 0
0 0 0
0 0 0
0 0 0
0 0 0
0 0 0
0 0 0
0 0 0
0 0 0
0 0 0
0 0 0
0 0 0
0 0 0
0 0 0
0 0 0
0 0 0
0 0 0
0 0 0
0 0 0
0 0 0
0 0 0
0 0 0
0 0 0
0 0 0
0 0 0
0 0 0
0 0 0
0 0 0
0 0 0
0 0 0
0 0 0
0 0 0
0 0 0
0 0 0
0 0 0
0 0 0
0 0 0
0 0 0
0 0 0
0 0 0
0 0 0
0 0 0
0 0 0
0 0 0
0 0 0
0 0 0
0 0 0
0 0 0
0 0 0
0 0 0
0 0 0
0 0 0
0 0 0
0 0 0
0 0 0
0 0 0
0 0 0
0 0 0
0 0 0
0 0 0
0 0 0
0 0 0
0 0 0
0 0 0
0 0 0
0 0 0
0 0 0
0 0 0
0 0 0
0 0 0
0 0 0
0 0 0
0 0 0
0 0 0
0 0 0
0 0 0
0 0 0
0 0 0
0 0 0
0 0 0
0 0 0
0 0 0
0 0 0
0 0 0
0 0 0
0 0 0
0 0 0
0 0 0
0 0 0
0 0 0
0 0 0
0 0 0
0 0 0
0 0 0
0 0 0
0 0 0
0 0 0
0 0 0
0 0 0
-0.000122772 -1.73717e-05 0.00017138
-0.000586732 -0.000151777 2.35836e-05
-0.00100076 -3.12537e-05 0.000177289
-0.00181059 -0.000127053 7.49218e-05
-0.00246648 -5.16931e-05 0.000160281
-0.00334259 -0.000108119 9.22411e-05
-0.00403928 -5.75735e-05 0.000136895
-0.00479189 -8.84243e-05 8.76368e-05
-0.00536353 -5.06417e-05 0.00010875
-0.00585894 -6.82218e-05 6.62221e-05
-0.00617569 -3.41635e-05 7.63547e-05
-0.00630581 -4.88387e-05 3.10862e-05
-0.00627271 -1.06935e-05 4.18198e-05
-0.00596349 -3.27987e-05 -1.46399e-05
-0.00554947 1.79193e-05 1.08123e-05
-0.0048053 -2.39513e-05 -6.60991e-05
-0.00409482 5.03965e-05 -6.23198e-06
-0.0030588 -2.69474e-05 -0.000115584
-0.00228534 8.58081e-05 4.25316e-06
-0.00126888 -4.42996e-05 -0.000153706
-0.000754415 0.000130171 5.86793e-05
-0.000179373 -5.30551e-05 -0.000156602
0 0 0
0 0 0
-0.000156234 -0.000162964 0.000128417
-0.000947923 -0.000348517 -2.15726e-05
-0.00169164 -0.000237953 0.000145904
-0.00299688 -0.000264551 5.02161e-05
-0.00414194 -0.000186576 0.000137168
-0.00555415 -0.000200239 7.41855e-05
-0.00674154 -0.000168257 0.000115694
-0.00795521 -0.00019287 6.75215e-05
-0.00890842 -0.000195009 8.23522e-05
-0.00970445 -0.000234574 3.72334e-05
-0.0102139 -0.000258646 3.82788e-05
-0.010418 -0.000310739 -1.19094e-05
-0.0103319 -0.000341136 -1.22489e-05
-0.00982847 -0.000396009 -7.32423e-05
-0.0090976 -0.000408073 -5.86112e-05
-0.00790012 -0.000447803 -0.000135352
-0.00666309 -0.000406698 -8.15771e-05
-0.00500733 -0.000414998 -0.000181822
-0.00365385 -0.00028763 -5.74399e-05
-0.00203311 -0.000275327 -0.000199628
-0.0011304 -5.53189e-05 3.75236e-05
-0.000154613 -0.00013124 -0.000174108
0 0 0
0 0 0
-0.000146391 -0.000218408 0.00019026
-0.00118484 -0.000462622 1.75736e-05
-0.0021798 -0.000358684 0.000217206
-0.00384862 -0.000403048 0.00010313
-0.005324 -0.000306556 0.000203263
-0.00710212 -0.000326012 0.000126696
-0.00860289 -0.000281301 0.000173262
-0.010115 -0.000312982 0.00011489
-0.0113018 -0.00031202 0.000131313
-0.012281 -0.000362931 7.79462e-05
-0.0129004 -0.000390675 7.95254e-05
-0.0131382 -0.000457735 2.13519e-05
-0.0130105 -0.000493022 2.19322e-05
-0.0123725 -0.00056322 -4.89856e-05
-0.0114438 -0.000572996 -3.18736e-05
-0.00995313 -0.00062298 -0.000122999
-0.00839543 -0.000563132 -6.28873e-05
-0.00634151 -0.000573175 -0.000184313
-0.00462689 -0.000407927 -4.51351e-05
-0.00260741 -0.00039212 -0.000216521
-0.00142536 -0.000132501 5.41027e-05
-0.000197836 -0.000188687 -0.000190599
0 0 0
0 0 0
-0.000176795 -0.000342387 0.000167466
-0.0013499 -0.000615239 -1.6303e-05
-0.00250844 -0.000554545 0.000198602
-0.00442222 -0.000588435 8.01309e-05
-0.00613004 -0.000500314 0.000186476
-0.00816239 -0.000503319 0.00010801
-0.00988543 -0.000462687 0.000156067
-0.0116041 -0.000487184 9.56452e-05
-0.0129538 -0.000496493 0.000110566
-0.0140573 -0.00055083 5.40472e-05
-0.0147487 -0.000595778 5.21257e-05
-0.0150042 -0.000671609 -1.01959e-05
-0.0148373 -0.00072665 -1.38566e-05
-0.0140973 -0.000801346 -8.90942e-05
-0.0130148 -0.000825753 -7.48796e-05
-0.0113096 -0.000864077 -0.00016877
-0.00951075 -0.00080726 -0.000106714
-0.00717235 -0.000781926 -0.000228406
-0.00520013 -0.000611285 -7.82709e-05
-0.00291068 -0.000541281 -0.000250403
-0.00156434 -0.000283228 4.49227e-05
-0.00019487 -0.000259116 -0.000209527
0 0 0
0 0 0
-0.000170771 -0.000358675 0.000198717
-0.00145306 -0.000643721 -3.99416e-06
-0.00271756 -0.000612749 0.000232576
-0.00481158 -0.000658064 0.000102157
-0.00667579 -0.000578694 0.00021801
-0.00888877 -0.000583193 0.000131399
-0.0107591 -0.000540908 0.000182944
-0.0126192 -0.000562279 0.000116321
-0.0140742 -0.000566546 0.00013182
-0.0152588 -0.000616005 6.99399e-05
-0.0159942 -0.000654557 6.74011e-05
-0.016257 -0.00072438 -3.13654e-07
-0.0160614 -0.000771932 -4.58556e-06
-0.0152476 -0.000839751 -8.62557e-05
-0.0140627 -0.000856448 -7.13341e-05
-0.0122083 -0.00088889 -0.000173421
-0.010252 -0.00082827 -0.000107072
-0.00771877 -0.000801834 -0.000239555
-0.0055809 -0.000638804 -7.82035e-05
-0.0031131 -0.000571798 -0.000264865
-0.0016626 -0.000334275 5.29188e-05
-0.000217123 -0.000280475 -0.00022049
0 0 0
0 0 0
-0.00018874 -0.000398246 0.000186265
-0.001522 -0.000673261 -2.65929e-05
-0.00285193 -0.000675469 0.000221018
-0.00505912 -0.000720381 8.47049e-05
-0.00702642 -0.00065748 0.000206346
-0.00936108 -0.000657315 0.000116563
-0.0113321 -0.000619139 0.000170727
-0.0132898 -0.000632892 0.000101962
-0.0148175 -0.000635413 0.000118072
-0.0160582 -0.000675908 5.40843e-05
-0.016823 -0.000710072 5.09601e-05
-0.0170893 -0.000769485 -1.91907e-05
-0.0168702 -0.000811661 -2.43414e-05
-0.0160009 -0.000867244 -0.000108811
-0.0147387 -0.000880146 -9.36339e-05
-0.0127746 -0.00090006 -0.000198398
-0.0107034 -0.000843078 -0.000128514
-0.00803244 -0.00080705 -0.000263609
-0.00578286 -0.000662586 -9.31489e-05
-0.00320112 -0.000588101 -0.000284093
-0.00169672 -0.000381784 4.97698e-05
-0.000218272 -0.000295629 -0.00023266
0 0 0
0 0 0
-0.000184411 -0.000355028 0.000201251
-0.00155971 -0.000602149 -2.3559e-05
-0.00292652 -0.000619845 0.000236384
-0.00521251 -0.000665847 9.25951e-05
-0.00724526 -0.000617223 0.000220284
-0.00966346 -0.00061829 0.000125626
-0.0116999 -0.000584429 0.000182307
-0.0137237 -0.00059389 0.000109982
-0.0152987 -0.000592242 0.000126743
-0.0165767 -0.000623024 5.97259e-05
-0.0173603 -0.000647322 5.64366e-05
-0.0176277 -0.000693442 -1.67584e-05
-0.0173926 -0.000723985 -2.21566e-05
-0.0164844 -0.000766529 -0.000110193
-0.0151709 -0.00077251 -9.43477e-05
-0.0131317 -0.000786039 -0.000203546
-0.0109858 -0.000735712 -0.000130672
-0.00822308 -0.000705342 -0.000271477
-0.0059039 -0.000587198 -9.40245e-05
-0.0032521 -0.00052611 -0.000292596
-0.00171735 -0.000358636 5.33129e-05
-0.000228986 -0.000269475 -0.000238961
0 0 0
0 0 0
-0.000193528 -0.000320267 0.000194483
-0.00158324 -0.000525874 -3.66508e-05
-0.00297063 -0.000554184 0.0002295
-0.00530102 -0.000594023 8.15499e-05
-0.00737305 -0.000559845 0.000213074
-0.00984354 -0.000559633 0.00011605
-0.0119216 -0.00053206 0.000174877
-0.0139888 -0.000536519 0.000101129
-0.015595 -0.000532737 0.000118916
-0.0168981 -0.000553621 5.07593e-05
-0.017694 -0.000569967 4.78648e-05
-0.017962 -0.000602731 -2.65589e-05
-0.0177152 -0.000623755 -3.17076e-05
-0.0167796 -0.00065312 -0.000121242
-0.0154301 -0.000654693 -0.000104457
-0.0133389 -0.000660889 -0.000215418
-0.0111422 -0.000619396 -0.000139823
-0.00831879 -0.00059182 -0.00028285
-0.00595649 -0.000500304 -9.98861e-05
-0.00326398 -0.000448737 -0.000301863
-0.00171704 -0.000319459 5.23656e-05
-0.000230401 -0.000234311 -0.000245307
0 0 0
0 0 0
-0.000190971 -0.0002331 0.000200989
-0.00159357 -0.000386236 -3.6262e-05
-0.00299031 -0.000411679 0.000235861
-0.00534946 -0.000443384 8.39365e-05
-0.00744422 -0.000420555 0.000218716
-0.0099482 -0.000421057 0.000119119
-0.0120516 -0.000400754 0.000179486
-0.0141467 -0.000403194 0.000103922
-0.0157722 -0.000398965 0.00012227
-0.0170914 -0.000412513 5.26154e-05
-0.0178951 -0.000422277 4.98342e-05
-0.0181633 -0.000444014 -2.60765e-05
-0.0179094 -0.000456948 -3.11645e-05
-0.016956 -0.000476273 -0.00012244
-0.015584 -0.000475631 -0.000105097
-0.0134596 -0.000479177 -0.000218248
-0.0112318 -0.000449175 -0.000140908
-0.00837086 -0.000430193 -0.000286779
-0.00598363 -0.000366804 -0.000100204
-0.00326848 -0.000331221 -0.000305924
-0.00171602 -0.000241139 5.37951e-05
-0.000235115 -0.000174812 -0.000248463
0 0 0
0 0 0
-0.000194667 -0.000154553 0.000197974
-0.00159945 -0.000249245 -4.20975e-05
-0.00300058 -0.000268513 0.000232663
-0.00537333 -0.000288293 7.8743e-05
-0.00747983 -0.000275696 0.000215348
-0.010002 -0.000275583 0.000114581
-0.0121194 -0.000263012 0.00017609
-0.0142305 -0.00026343 9.98576e-05
-0.0158672 -0.000259914 0.000118866
-0.0171959 -0.000266776 4.87364e-05
-0.0180042 -0.000271474 4.63484e-05
-0.0182727 -0.000283149 -3.00502e-05
-0.0180143 -0.000289678 -3.48019e-05
-0.0170501 -0.000299812 -0.000126707
-0.0156646 -0.000298264 -0.000108727
-0.0135202 -0.000298995 -0.000222717
-0.0112743 -0.000280299 -0.000144004
-0.00839162 -0.00026788 -0.000291041
-0.00599099 -0.000230061 -0.000102012
-0.0032645 -0.00020783 -0.000309448
-0.00171121 -0.00015412 5.3613e-05
-0.000235898 -0.00011092 -0.000251031
0 0 0
0 0 0
-0.000193826 -4.62184e-05 0.000199772
-0.00160109 -7.79414e-05 -4.21292e-05
-0.0030035 -8.3931e-05 0.000234374
-0.00538296 -9.09042e-05 7.9228e-05
-0.00749452 -8.6687e-05 0.000216847
-0.0100252 -8.69499e-05 0.000115283
-0.012149 -8.28482e-05 0.000177308
-0.0142675 -8.32406e-05 0.000100522
-0.0159094 -8.21762e-05 0.000119749
-0.0172425 -8.467e-05 4.91732e-05
-0.018053 -8.63239e-05 4.68637e-05
-0.0183215 -9.03922e-05 -2.99738e-05
-0.0180611 -9.26477e-05 -3.46631e-05
-0.0170921 -9.62397e-05 -0.000127084
-0.0157004 -9.58705e-05 -0.00010889
-0.0135469 -9.64753e-05 -0.000223539
-0.0112928 -9.05615e-05 -0.000144259
-0.0084004 -8.69885e-05 -0.000292163
-0.00599399 -7.48952e-05 -0.000102042
-0.00326278 -6.80768e-05 -0.000310606
-0.00170928 -5.06591e-05 5.39984e-05
-0.000237215 -3.63132e-05 -0.000251975
0 0 0
0 0 0
-0.000193826 4.62184e-05 0.000199772
-0.00160109 7.79414e-05 -4.21292e-05
-0.0030035 8.3931e-05 0.000234374
-0.00538296 9.09042e-05 7.9228e-05
-0.00749452 8.6687e-05 0.000216847
-0.0100252 8.69499e-05 0.000115283
-0.012149 8.28482e-05 0.000177308
-0.0142675 8.32406e-05 0.000100522
-0.0159094 8.21762e-05 0.000119749
-0.0172425 8.467e-05 4.91732e-05
-0.018053 8.63239e-05 4.68637e-05
-0.0183215 9.03922e-05 -2.99738e-05
-0.0180611 9.26477e-05 -3.46631e-05
-0.0170921 9.62397e-05 -0.000127084
-0.0157004 9.58705e-05 -0.00010889
-0.0135469 9.64753e-05 -0.000223539
-0.0112928 9.05615e-05 -0.000144259
-0.0084004 8.69885e-05 -0.000292163
-0.00599399 7.48952e-05 -0.000102042
-0.00326278 6.80768e-05 -0.000310606
-0.00170928 5.06591e-05 5.39984e-05
-0.000237215 3.63132e-05 -0.000251975
0 0 0
0 0 0
-0.000194667 0.000154553 0.000197974
-0.00159945 0.000249245 -4.20975e-05
-0.00300058 0.000268513 0.000232663
-0.00537333 0.000288293 7.8743e-05
-0.00747983 0.000275696 0.000215348
-0.010002 0.000275583 0.000114581
-0.0121194 0.000263012 0.00017609
-0.0142305 0.00026343 9.98576e-05
-0.0158672 0.000259914 0.000118866
-0.0171959 0.000266776 4.87364e-05
-0.0180042 0.000271474 4.63484e-05
-0.0182727 0.000283149 -3.00502e-05
-0.0180143 0.000289678 -3.48019e-05
-0.0170501 0.000299812 -0.000126707
-0.0156646 0.000298264 -0.000108727
-0.0135202 0.000298995 -0.000222717
-0.0112743 0.000280299 -0.000144004
-0.00839162 0.00026788 -0.000291041
-0.00599099 0.000230061 -0.000102012
-0.0032645 0.00020783 -0.000309448
-0.00171121 0.00015412 5.3613e-05
-0.000235898 0.00011092 -0.000251031
0 0 0
0 0 0
-0.000190971 0.0002331 0.000200989
-0.00159357 0.000386236 -3.6262e-05
-0.00299031 0.000411679 0.000235861
-0.00534946 0.000443384 8.39365e-05
-0.00744422 0.000420555 0.000218716
-0.0099482 0.000421057 0.000119119
-0.0120516 0.000400754 0.000179486
-0.0141467 0.000403194 0.000103922
-0.0157722 0.000398965 0.00012227
-0.0170914 0.000412513 5.26154e-05
-0.0178951 0.000422277 4.98342e-05
-0.0181633 0.000444014 -2.60765e-05
-0.0179094 0.000456948 -3.11645e-05
-0.016956 0.000476273 -0.00012244
-0.015584 0.000475631 -0.000105097
-0.0134596 0.000479177 -0.000218248
-0.0112318 0.000449175 -0.000140908
-0.00837086 0.000430193 -0.000286779
-0.00598363 0.000366804 -0.000100204
-0.00326848 0.000331221 -0.000305924
-0.00171602 0.000241139 5.37951e-05
-0.000235115 0.000174812 -0.000248463
0 0 0
0 0 0
-0.000193528 0.000320267 0.000194483
-0.00158324 0.000525874 -3.66508e-05
-0.00297063 0.000554184 0.0002295
-0.00530102 0.000594023 8.15499e-05
-0.00737305 0.000559845 0.000213074
-0.00984354 0.000559633 0.00011605
-0.0119216 0.00053206 0.000174877
-0.0139888 0.000536519 0.000101129
-0.015595 0.000532737 0.000118916
-0.0168981 0.000553621 5.07593e-05
-0.017694 0.000569967 4.78648e-05
-0.017962 0.000602731 -2.65589e-05
-0.0177152 0.000623755 -3.17076e-05
-0.0167796 0.00065312 -0.000121242
-0.0154301 0.000654693 -0.000104457
-0.0133389 0.000660889 -0.000215418
-0.0111422 0.000619396 -0.000139823
-0.00831879 0.00059182 -0.00028285
-0.00595649 0.000500304 -9.98861e-05
-0.00326398 0.000448737 -0.000301863
-0.00171704 0.000319459 5.23656e-05
-0.000230401 0.000234311 -0.000245307
0 0 0
0 0 0
-0.000184411 0.000355028 0.000201251
-0.00155971 0.000602149 -2.3559e-05
-0.00292652 0.000619845 0.000236384
-0.00521251 0.000665847 9.25951e-05
-0.00724526 0.000617223 0.000220284
-0.00966346 0.00061829 0.000125626
-0.0116999 0.000584429 0.000182307
-0.0137237 0.00059389 0.000109982
-0.0152987 0.000592242 0.000126743
-0.0165767 0.000623024 5.97259e-05
-0.0173603 0.000647322 5.64366e-05
-0.0176277 0.000693442 -1.67584e-05
-0.0173926 0.000723985 -2.21566e-05
-0.0164844 0.000766529 -0.000110193
-0.0151709 0.00077251 -9.43477e-05
-0.0131317 0.000786039 -0.000203546
-0.0109858 0.000735712 -0.000130672
-0.00822308 0.000705342 -0.000271477
-0.0059039 0.000587198 -9.40245e-05
-0.0032521 0.00052611 -0.000292596
-0.00171735 0.000358636 5.33129e-05
-0.000228986 0.000269475 -0.000238961
0 0 0
0 0 0
-0.00018874 0.000398246 0.000186265
-0.001522 0.000673261 -2.65929e-05
-0.00285193 0.000675469 0.000221018
-0.00505912 0.000720381 8.47049e-05
-0.00702642 0.00065748 0.000206346
-0.00936108 0.000657315 0.000116563
-0.0113321 0.000619139 0.000170727
-0.0132898 0.000632892 0.000101962
-0.0148175 0.000635413 0.000118072
-0.0160582 0.000675908 5.40843e-05
-0.016823 0.000710072 5.09601e-05
-0.0170893 0.000769485 -1.91907e-05
-0.0168702 0.000811661 -2.43414e-05
-0.0160009 0.000867244 -0.000108811
-0.0147387 0.000880146 -9.36339e-05
-0.0127746 0.00090006 -0.000198398
-0.0107034 0.000843078 -0.000128514
-0.00803244 0.00080705 -0.000263609
-0.00578286 0.000662586 -9.31489e-05
-0.00320112 0.000588101 -0.000284093
-0.00169672 0.000381784 4.97698e-05
-0.000218272 0.000295629 -0.00023266
0 0 0
0 0 0
-0.000170771 0.000358675 0.000198717
-0.00145306 0.000643721 -3.99416e-06
-0.00271756 0.000612749 0.000232576
-0.00481158 0.000658064 0.000102157
-0.00667579 0.000578694 0.00021801
-0.00888877 0.000583193 0.000131399
-0.0107591 0.000540908 0.000182944
-0.0126192 0.000562279 0.000116321
-0.0140742 0.000566546 0.00013182
-0.0152588 0.000616005 6.99399e-05
-0.0159942 0.000654557 6.74011e-05
-0.016257 0.00072438 -3.13654e-07
-0.0160614 0.000771932 -4.58556e-06
-0.0152476 0.000839751 -8.62557e-05
-0.0140627 0.000856448 -7.13341e-05
-0.0122083 0.00088889 -0.000173421
-0.010252 0.00082827 -0.000107072
-0.00771877 0.000801834 -0.000239555
-0.0055809 0.000638804 -7.82035e-05
-0.0031131 0.000571798 -0.000264865
-0.0016626 0.000334275 5.29188e-05
-0.000217123 0.000280475 -0.00022049
0 0 0
0 0 0
-0.000176795 0.000342387 0.000167466
-0.0013499 0.000615239 -1.6303e-05
-0.00250844 0.000554545 0.000198602
-0.00442222 0.000588435 8.01309e-05
-0.00613004 0.000500314 0.000186476
-0.00816239 0.000503319 0.00010801
-0.00988543 0.000462687 0.000156067
-0.0116041 0.000487184 9.56452e-05
-0.0129538 0.000496493 0.000110566
-0.0140573 0.00055083 5.40472e-05
-0.0147487 0.000595778 5.21257e-05
-0.0150042 0.000671609 -1.01959e-05
-0.0148373 0.00072665 -1.38566e-05
-0.0140973 0.000801346 -8.90942e-05
-0.0130148 0.000825753 -7.48796e-05
-0.0113096 0.000864077 -0.00016877
-0.00951075 0.00080726 -0.000106714
-0.00717235 0.000781926 -0.000228406
-0.00520013 0.000611285 -7.82709e-05
-0.00291068 0.000541281 -0.000250403
-0.00156434 0.000283228 4.49227e-05
-0.00019487 0.000259116 -0.000209527
0 0 0
0 0 0
-0.000146391 0.000218408 0.00019026
-0.00118484 0.000462622 1.75736e-05
-0.0021798 0.000358684 0.000217206
-0.00384862 0.000403048 0.00010313
-0.005324 0.000306556 0.000203263
-0.00710212 0.000326012 0.000126696
-0.00860289 0.000281301 0.000173262
-0.010115 0.000312982 0.00011489
-0.0113018 0.00031202 0.000131313
-0.012281 0.000362931 7.79462e-05
-0.0129004 0.000390675 7.95254e-05
-0.0131382 0.000457735 2.13519e-05
-0.0130105 0.000493022 2.19322e-05
-0.0123725 0.00056322 -4.89856e-05
-0.0114438 0.000572996 -3.18736e-05
-0.00995313 0.00062298 -0.000122999
-0.00839543 0.000563132 -6.28873e-05
-0.00634151 0.000573175 -0.000184313
-0.00462689 0.000407927 -4.51351e-05
-0.00260741 0.00039212 -0.000216521
-0.00142536 0.000132501 5.41027e-05
-0.000197836 0.000188687 -0.000190599
0 0 0
0 0 0
-0.000156234 0.000162964 0.000128417
-0.000947923 0.000348517 -2.15726e-05
-0.00169164 0.000237953 0.000145904
-0.00299688 0.000264551 5.02161e-05
-0.00414194 0.000186576 0.000137168
-0.00555415 0.000200239 7.41855e-05
-0.00674154 0.000168257 0.000115694
-0.00795521 0.00019287 6.75215e-05
-0.00890842 0.000195009 8.23522e-05
-0.00970445 0.000234574 3.72334e-05
-0.0102139 0.000258646 3.82788e-05
-0.010418 0.000310739 -1.19094e-05
-0.0103319 0.000341136 -1.22489e-05
-0.00982847 0.000396009 -7.32423e-05
-0.0090976 0.000408073 -5.86112e-05
-0.00790012 0.000447803 -0.000135352
-0.00666309 0.000406698 -8.15771e-05
-0.00500733 0.000414998 -0.000181822
-0.00365385 0.00028763 -5.74399e-05
-0.00203311 0.000275327 -0.000199628
-0.0011304 5.53189e-05 3.75236e-05
-0.000154613 0.00013124 -0.000174108
0 0 0
0 0 0
-0.000122772 1.73717e-05 0.00017138
-0.000586732 0.000151777 2.35836e-05
-0.00100076 3.12537e-05 0.000177289
-0.00181059 0.000127053 7.49218e-05
-0.00246648 5.16931e-05 0.000160281
-0.00334259 0.000108119 9.22411e-05
-0.00403928 5.75735e-05 0.000136895
-0.00479189 8.84243e-05 8.76368e-05
-0.00536353 5.06417e-05 0.00010875
-0.00585894 6.82218e-05 6.62221e-05
-0.00617569 3.41635e-05 7.63547e-05
-0.00630581 4.88387e-05 3.10862e-05
-0.00627271 1.06935e-05 4.18198e-05
-0.00596349 3.27987e-05 -1.46399e-05
-0.00554947 -1.79193e-05 1.08123e-05
-0.0048053 2.39513e-05 -6.60991e-05
-0.00409482 -5.03965e-05 -6.23198e-06
-0.0030588 2.69474e-05 -0.000115584
-0.00228534 -8.58081e-05 4.25316e-06
-0.00126888 4.42996e-05 -0.000153706
-0.000754415 -0.000130171 5.86793e-05
-0.000179373 5.30551e-05 -0.000156602
0 0 0
0 0 0
0 0 0
0 0 0
0 0 0
0 0 0
0 0 0
0 0 0
0 0 0
0 0 0
0 0 0
0 0 0
0 0 0
0 0 0
0 0 0
0 0 0
0 0 0
0 0 0
0 0 0
0 0 0
0 0 0
0 0 0
0 0 0
0 0 0
0 0 0
0 0 0
0 0 0
0 0 0
0 0 0
0 0 0
0 0 0
0 0 0
0 0 0
0 0 0
0 0 0
0 0 0
0 0 0
0 0 0
0 0 0
0 0 0
0 0 0
0 0 0
0 0 0
0 0 0
0 0 0
0 0 0
0 0 0
0 0 0
0 0 0
0 0 0
-1.50838e-05 9.39887e-05 0.000806232
-0.000880204 -5.14513e-05 0.00103621
-0.00163841 0.000106102 0.00146595
-0.003015 1.43255e-05 0.00153261
-0.00420005 9.85825e-05 0.00166854
-0.00567031 3.91373e-05 0.00159703
-0.00689953 8.02949e-05 0.00155143
-0.00816074 3.47663e-05 0.00138247
-0.00915286 5.02102e-05 0.001218
-0.00998716 7.82756e-06 0.000967816
-0.0105293 1.06693e-05 0.000715066
-0.0107585 -3.53269e-05 0.000392422
-0.0106922 -3.23466e-05 8.40734e-05
-0.0101907 -8.67006e-05 -0.000283486
-0.00945687 -6.7871e-05 -0.000580801
-0.00822598 -0.000135282 -0.000928317
-0.00695681 -7.88679e-05 -0.00109723
-0.00522681 -0.000168082 -0.00132821
-0.00382046 -4.76365e-05 -0.00121826
-0.00209785 -0.000179263 -0.00125656
-0.00115676 4.00189e-05 -0.000758328
-8.83819e-05 -0.000161997 -0.000689941
0 0 0
0 0 0
-5.46654e-05 -0.000186438 0.00113289
-0.00152371 -0.000449263 0.00159548
-0.00291235 -0.000286189 0.00228386
-0.00519251 -0.00029845 0.00246955
-0.00727933 -0.00018642 0.00267229
-0.00971708 -0.000196311 0.00258421
-0.0118365 -0.000165387 0.00247884
-0.0139248 -0.000211786 0.00219978
-0.0156036 -0.000244622 0.00189173
-0.0169757 -0.000329002 0.00146244
-0.0178634 -0.000405003 0.00100374
-0.0182257 -0.000516925 0.000450399
-0.0180651 -0.000607616 -0.000102418
-0.0172192 -0.000722672 -0.000720148
-0.0159176 -0.000782471 -0.00125221
-0.0138792 -0.000859247 -0.00180704
-0.0116596 -0.000823081 -0.00211807
-0.00881853 -0.000821331 -0.00242574
-0.00634779 -0.000629603 -0.00226489
-0.00353224 -0.000561899 -0.00218182
-0.00184767 -0.000210153 -0.00138117
-5.96297e-05 -0.000273787 -0.0010778
0 0 0
0 0 0
-2.66001e-05 -0.000291791 0.00141644
-0.0019673 -0.000655691 0.00204678
-0.00384474 -0.000514356 0.00293422
-0.00680241 -0.000547966 0.00320232
-0.00952993 -0.000412428 0.00345409
-0.0126508 -0.000424355 0.00334137
-0.0153735 -0.000378266 0.00318241
-0.0180204 -0.000433115 0.0028057
-0.0201461 -0.000467557 0.00237867
-0.0218622 -0.000571161 0.00180128
-0.0229588 -0.000661225 0.00117929
-0.0233861 -0.00079968 0.000443605
-0.0231435 -0.000906984 -0.000295438
-0.022048 -0.00104728 -0.00110466
-0.0203634 -0.0011108 -0.00180841
-0.0177779 -0.00119843 -0.00251833
-0.0149352 -0.00113632 -0.00292501
-0.0113489 -0.0011227 -0.00328868
-0.00817172 -0.000870619 -0.00307469
-0.00460535 -0.000775853 -0.00289991
-0.00237833 -0.000357441 -0.00185651
-8.73082e-05 -0.000375077 -0.00137181
0 0 0
0 0 0
-5.53315e-05 -0.000512179 0.00149656
-0.0022837 -0.000944009 0.00220885
-0.00449158 -0.000874816 0.00322641
-0.00791911 -0.000906464 0.00355491
-0.0111019 -0.000779932 0.00384277
-0.014704 -0.000770947 0.00371877
-0.0178549 -0.000722975 0.00352364
-0.0208911 -0.000765169 0.00308245
-0.0233276 -0.000805172 0.00257187
-0.0252771 -0.000909005 0.0018925
-0.0265097 -0.00101373 0.00115457
-0.0269706 -0.00115899 0.000292318
-0.0266528 -0.0012834 -0.000578485
-0.0253669 -0.00142418 -0.00151766
-0.0233902 -0.00149566 -0.00233877
-0.0204042 -0.00156155 -0.00314393
-0.0171003 -0.00148935 -0.0036049
-0.0129803 -0.00142336 -0.00398006
-0.00930063 -0.00114974 -0.00370414
-0.00522086 -0.000981483 -0.00342838
-0.00265613 -0.000555669 -0.00218995
-7.45679e-05 -0.000462067 -0.00156229
0 0 0
0 0 0
-4.25858e-05 -0.000560959 0.00156329
-0.00248788 -0.00102092 0.0023081
-0.00491611 -0.00100604 0.00341625
-0.00868496 -0.00106004 0.00377709
-0.0121811 -0.000949008 0.00409196
-0.0161253 -0.000941575 0.00395422
-0.0195675 -0.00088942 0.00373333
-0.0228726 -0.000923587 0.0032418
-0.0255154 -0.000952639 0.0026707
-0.0276196 -0.00104476 0.00191518
-0.0289372 -0.0011356 0.00109399
-0.0294121 -0.00126668 0.000139247
-0.0290361 -0.00137482 -0.000824295
-0.0276102 -0.00149934 -0.00185673
-0.0254308 -0.0015538 -0.00275678
-0.0221617 -0.00160501 -0.00362837
-0.018545 -0.0015227 -0.00411827
-0.0140542 -0.00145152 -0.00449895
-0.0100409 -0.00118794 -0.00416467
-0.00561598 -0.00102496 -0.00381699
-0.00283658 -0.000630867 -0.00242651
-8.28654e-05 -0.000492352 -0.00170569
0 0 0
0 0 0
-5.9299e-05 -0.0006276 0.0015495
-0.00262445 -0.00107965 0.00229538
-0.00519129 -0.00111727 0.00345565
-0.00918021 -0.00117879 0.00383601
-0.0128844 -0.00109211 0.00417012
-0.01706 -0.00108023 0.00402635
-0.0207005 -0.00102996 0.00379182
-0.0241897 -0.00105013 0.00327098
-0.0269735 -0.00106919 0.00266325
-0.0291829 -0.00114179 0.00186094
-0.0305564 -0.00121643 0.000987342
-0.0310374 -0.00132409 -2.55563e-05
-0.0306153 -0.00141354 -0.00104816
-0.0290855 -0.00151229 -0.00213874
-0.0267567 -0.00155137 -0.00308737
-0.0232829 -0.00158034 -0.00399656
-0.0194425 -0.00149773 -0.00449821
-0.0146928 -0.00141623 -0.00487197
-0.0104554 -0.00118072 -0.0044878
-0.00580929 -0.00101808 -0.00408104
-0.00291066 -0.000675032 -0.00258122
-7.48919e-05 -0.000497041 -0.00179524
0 0 0
0 0 0
-5.34524e-05 -0.000570501 0.00154266
-0.00270375 -0.000979534 0.00227587
-0.00535284 -0.001041 0.00346839
-0.00949062 -0.00110801 0.00385624
-0.0133289 -0.00104322 0.0042039
-0.0176613 -0.00103467 0.00405427
-0.0214321 -0.000988923 0.00381177
-0.0250455 -0.0010008 0.00327076
-0.0279219 -0.00100931 0.0026395
-0.0302011 -0.00106295 0.0018058
-0.0316102 -0.00111672 0.000898157
-0.032093 -0.00119869 -0.000153468
-0.0316383 -0.00126393 -0.00121418
-0.0300353 -0.00133756 -0.00234312
-0.0276052 -0.00136051 -0.00332178
-0.0239906 -0.00137731 -0.00425513
-0.0200017 -0.00130244 -0.00476064
-0.0150787 -0.00123251 -0.00512888
-0.010699 -0.00103922 -0.00470639
-0.00591489 -0.000905308 -0.00426118
-0.00294899 -0.000625805 -0.00268473
-7.61784e-05 -0.000450052 -0.00185926
0 0 0
0 0 0
-6.25506e-05 -0.000510955 0.00151167
-0.00275241 -0.000853476 0.0022276
-0.00544805 -0.000925941 0.003436
-0.00967261 -0.000986761 0.00382739
-0.0135923 -0.000942393 0.00418455
-0.0180232 -0.00093435 0.00403322
-0.0218769 -0.000895831 0.00378857
-0.0255712 -0.000899452 0.00323801
-0.0285079 -0.000900348 0.00259528
-0.0308332 -0.000935487 0.00174514
-0.0322656 -0.000971039 0.000819218
-0.0327488 -0.00102784 -0.00025374
-0.0322713 -0.00107188 -0.00133566
-0.0306176 -0.0011214 -0.00248593
-0.028118 -0.00113238 -0.00348074
-0.0244074 -0.00113774 -0.00442635
-0.0203195 -0.00107484 -0.0049311
-0.0152832 -0.00101506 -0.00529269
-0.0108155 -0.000865594 -0.00484274
-0.00595054 -0.000757366 -0.00437115
-0.00295334 -0.000542119 -0.00274526
-7.17583e-05 -0.000382391 -0.00189545
0 0 0
0 0 0
-6.01409e-05 -0.00037703 0.00149393
-0.00277655 -0.000632716 0.00219395
-0.00549576 -0.000694722 0.003411
-0.00977405 -0.000744067 0.00380236
-0.0137414 -0.000715469 0.0041658
-0.0182342 -0.000710556 0.00401294
-0.0221385 -0.000681809 0.00376776
-0.0258841 -0.000682469 0.00321147
-0.0288584 -0.000680017 0.00256248
-0.031213 -0.000701977 0.00170258
-0.0326599 -0.000723492 0.000766187
-0.0331432 -0.000760342 -0.000319477
-0.032651 -0.00078757 -0.00141363
-0.0309645 -0.000819215 -0.00257662
-0.028421 -0.000823407 -0.00358039
-0.0246491 -0.000824935 -0.00453326
-0.0205 -0.000778903 -0.00503633
-0.0153936 -0.000736954 -0.00539397
-0.0108743 -0.000633203 -0.00492594
-0.00596354 -0.000558082 -0.00443925
-0.00295169 -0.000407652 -0.00278237
-7.14382e-05 -0.000284988 -0.00191955
0 0 0
0 0 0
-6.41084e-05 -0.000246308 0.00147466
-0.00278959 -0.000404788 0.00216298
-0.00552005 -0.0004482 0.00338332
-0.00982499 -0.000479535 0.00377444
-0.0138174 -0.000464048 0.00414184
-0.0183439 -0.000460557 0.00398904
-0.0222765 -0.000442459 0.00374483
-0.0260514 -0.00044102 0.00318675
-0.0290474 -0.000437612 0.00253578
-0.0314192 -0.000448428 0.00167197
-0.0328746 -0.000459011 0.000731209
-0.0333579 -0.000478537 -0.000360138
-0.032857 -0.000492428 -0.00145981
-0.0311509 -0.000508781 -0.00262871
-0.0285813 -0.000509123 -0.00363638
-0.0247733 -0.000507836 -0.00459233
-0.0205887 -0.000479118 -0.00509353
-0.0154423 -0.000452813 -0.00544828
-0.0108951 -0.000391245 -0.00496953
-0.00596113 -0.000345603 -0.00447426
-0.00294465 -0.000256317 -0.00280029
-6.95647e-05 -0.000178016 -0.00193084
0 0 0
0 0 0
-6.34627e-05 -7.63693e-05 0.00146726
-0.00279412 -0.000129445 0.00214948
-0.00552865 -0.000143742 0.00337122
-0.00984597 -0.000154781 0.00376178