# vtk DataFile Version 3.0
CFD lid driven cavity 3D
ASCII
DATASET STRUCTURED_POINTS
DIMENSIONS 25 25 25
ORIGIN 0 0 0
SPACING 0.0416667 0.0416667 0.0416667
CELL_DATA 13824
VECTORS velocity double
0 0 0
0 0 0
0 0 0
0 0 0
0 0 0
0 0 0
0 0 0
0 0 0
0 0 0
0 0 0
0 0 0
0 0 0
0 0 0
0 0 0
0 0 0
0 0 0
0 0 0
0 0 0
0 0 0
0 0 0
0 0 0
0 0 0
0 0 0
0 0 0
0 0 0
0 0 0
0 0 0
0 0 0
0 0 0
0 0 0
0 0 0
0 0 0
0 0 0
0 0 0
0 0 0
0 0 0
0 0 0
0 0 0
0 0 0
0 0 0
0 0 0
0 0 0
0 0 0
0 0 0
0 0 0
0 0 0
0 0 0
0 0 0
0 0 0
0 0 0
0 0 0
0 0 0
0 0 0
0 0 0
0 0 0
0 0 0
0 0 0
0 0 0
0 0 0
0 0 0
0 0 0
0 0 0
0 0 0
0 0 0
0 0 0
0 0 0
0 0 0
0 0 0
0 0 0
0 0 0
0 0 0
0 0 0
0 0 0
0 0 0
0 0 0
0 0 0
0 0 0
0 0 0
0 0 0
0 0 0
0 0 0
0 0 0
0 0 0
0 0 0
0 0 0
0 0 0
0 0 0
0 0 0
0 0 0
0 0 0
0 0 0
0 0 0
0 0 0
0 0 0
0 0 0
0 0 0
0 0 0
0 0 0
0 0 0
0 0 0
0 0 0
0 0 0
0 0 0
0 0 0
0 0 0
0 0 0
0 0 0
0 0 0
0 0 0
0 0 0
0 0 0
0 0 0
0 0 0
0 0 0
0 0 0
0 0 0
0 0 0
0 0 0
0 0 0
0 0 0
0 0 0
0 0 0
0 0 0
0 0 0
0 0 0
0 0 0
0 0 0
0 0 0
0 0 0
0 0 0
0 0 0
0 0 0
0 0 0
0 0 0
0 0 0
0 0 0
0 0 0
0 0 0
0 0 0
0 0 0
0 0 0
0 0 0
0 0 0
0 0 0
0 0 0
0 0 0
0 0 0
0 0 0
0 0 0
0 0 0
0 0 0
0 0 0
0 0 0
0 0 0
0 0 0
0 0 0
0 0 0
0 0 0
0 0 0
0 0 0
0 0 0
0 0 0
0 0 0
0 0 0
0 0 0
0 0 0
0 0 0
0 0 0
0 0 0
0 0 0
0 0 0
0 0 0
0 0 0
0 0 0
0 0 0
0 0 0
0 0 0
0 0 0
0 0 0
0 0 0
0 0 0
0 0 0
0 0 0
0 0 0
0 0 0
0 0 0
0 0 0
0 0 0
0 0 0
0 0 0
0 0 0
0 0 0
0 0 0
0 0 0
0 0 0
0 0 0
0 0 0
0 0 0
0 0 0
0 0 0
0 0 0
0 0 0
0 0 0
0 0 0
0 0 0
0 0 0
0 0 0
0 0 0
0 0 0
0 0 0
0 0 0
0 0 0
0 0 0
0 0 0
0 0 0
0 0 0
0 0 0
0 0 0
0 0 0
0 0 0
0 0 0
0 0 0
0 0 0
0 0 0
0 0 0
0 0 0
0 0 0
0 0 0
0 0 0
0 0 0
0 0 0
0 0 0
0 0 0
0 0 0
0 0 0
0 0 0
0 0 0
0 0 0
0 0 0
0 0 0
0 0 0
0 0 0
0 0 0
0 0 0
0 0 0
0 0 0
0 0 0
0 0 0
0 0 0
0 0 0
0 0 0
0 0 0
0 0 0
0 0 0
0 0 0
0 0 0
0 0 0
0 0 0
0 0 0
0 0 0
0 0 0
0 0 0
0 0 0
0 0 0
0 0 0
0 0 0
0 0 0
0 0 0
0 0 0
0 0 0
0 0 0
0 0 0
0 0 0
0 0 0
0 0 0
0 0 0
0 0 0
0 0 0
0 0 0
0 0 0
0 0 0
0 0 0
0 0 0
0 0 0
0 0 0
0 0 0
0 0 0
0 0 0
0 0 0
0 0 0
0 0 0
0 0 0
0 0 0
0 0 0
0 0 0
0 0 0
0 0 0
0 0 0
0 0 0
0 0 0
0 0 0
0 0 0
0 0 0
0 0 0
0 0 0
0 0 0
0 0 0
0 0 0
0 0 0
0 0 0
0 0 0
0 0 0
0 0 0
0 0 0
0 0 0
0 0 0
0 0 0
0 0 0
0 0 0
0 0 0
0 0 0
0 0 0
0 0 0
0 0 0
0 0 0
0 0 0
0 0 0
0 0 0
0 0 0
0 0 0
0 0 0
0 0 0
0 0 0
0 0 0
0 0 0
0 0 0
0 0 0
0 0 0
0 0 0
0 0 0
0 0 0
0 0 0
0 0 0
0 0 0
0 0 0
0 0 0
0 0 0
0 0 0
0 0 0
0 0 0
0 0 0
0 0 0
0 0 0
0 0 0
0 0 0
0 0 0
0 0 0
0 0 0
0 0 0
0 0 0
0 0 0
0 0 0
0 0 0
0 0 0
0 0 0
0 0 0
0 0 0
0 0 0
0 0 0
0 0 0
0 0 0
0 0 0
0 0 0
0 0 0
0 0 0
0 0 0
0 0 0
0 0 0
0 0 0
0 0 0
0 0 0
0 0 0
0 0 0
0 0 0
0 0 0
0 0 0
0 0 0
0 0 0
0 0 0
0 0 0
0 0 0
0 0 0
0 0 0
0 0 0
0 0 0
0 0 0
0 0 0
0 0 0
0 0 0
0 0 0
0 0 0
0 0 0
0 0 0
0 0 0
0 0 0
0 0 0
0 0 0
0 0 0
0 0 0
0 0 0
0 0 0
0 0 0
0 0 0
0 0 0
0 0 0
0 0 0
0 0 0
0 0 0
0 0 0
0 0 0
0 0 0
0 0 0
0 0 0
0 0 0
0 0 0
0 0 0
0 0 0
0 0 0
0 0 0
0 0 0
0 0 0
0 0 0
0 0 0
0 0 0
0 0 0
0 0 0
0 0 0
0 0 0
0 0 0
0 0 0
0 0 0
0 0 0
0 0 0
0 0 0
0 0 0
0 0 0
0 0 0
0 0 0
0 0 0
0 0 0
0 0 0
0 0 0
0 0 0
0 0 0
0 0 0
0 0 0
0 0 0
0 0 0
0 0 0
0 0 0
0 0 0
0 0 0
0 0 0
0 0 0
0 0 0
0 0 0
0 0 0
0 0 0
0 0 0
0 0 0
0 0 0
0 0 0
0 0 0
0 0 0
0 0 0
0 0 0
0 0 0
0 0 0
0 0 0
0 0 0
0 0 0
0 0 0
0 0 0
0 0 0
0 0 0
0 0 0
0 0 0
0 0 0
0 0 0
0 0 0
0 0 0
0 0 0
0 0 0
0 0 0
0 0 0
0 0 0
0 0 0
0 0 0
0 0 0
0 0 0
0 0 0
0 0 0
0 0 0
0 0 0
0 0 0
0 0 0
0 0 0
0 0 0
0 0 0
0 0 0
0 0 0
0 0 0
0 0 0
0 0 0
0 0 0
0 0 0
0 0 0
0 0 0
0 0 0
0 0 0
0 0 0
0 0 0
0 0 0
0 0 0
0 0 0
0 0 0
0 0 0
0 0 0
0 0 0
0 0 0
0 0 0
0 0 0
0 0 0
0 0 0
0 0 0
0 0 0
0 0 0
0 0 0
0 0 0
0 0 0
0 0 0
0 0 0
0 0 0
0 0 0
0 0 0
0 0 0
0 0 0
0 0 0
0 0 0
0 0 0
0 0 0
0 0 0
0 0 0
0 0 0
0 0 0
0 0 0
0 0 0
0 0 0
0 0 0
0 0 0
0 0 0
0 0 0
0 0 0
0 0 0
0 0 0
0 0 0
0 0 0
0 0 0
0 0 0
0 0 0
0 0 0
0 0 0
0 0 0
0 0 0
0 0 0
0 0 0
0 0 0
0 0 0
0 0 0
0 0 0
0 0 0
0 0 0
0 0 0
0 0 0
0 0 0
0 0 0
0 0 0
0 0 0
0 0 0
0 0 0
0 0 0
0 0 0
0 0 0
0 0 0
0 0 0
0 0 0
0 0 0
0 0 0
0 0 0
0 0 0
0 0 0
-0.000181399 8.56628e-06 0.000191762
-0.00102378 -0.000131642 3.33924e-05
-0.0016116 -8.87579e-06 0.000175282
-0.00254766 -9.48271e-05 7.13023e-05
-0.00319359 -2.47643e-05 0.000139267
-0.0039827 -6.98145e-05 7.28868e-05
-0.00453675 -2.5151e-05 0.00010272
-0.00510566 -4.71387e-05 5.51942e-05
-0.00548386 -1.53683e-05 6.44064e-05
-0.00579274 -2.59456e-05 2.50009e-05
-0.00594392 7.16236e-07 2.5088e-05
-0.00596832 -6.64746e-06 -1.28632e-05
-0.00586978 2.06917e-05 -1.27553e-05
-0.0056003 9.25076e-06 -5.484e-05
-0.00525878 4.31981e-05 -4.51386e-05
-0.00470394 1.90453e-05 -9.81304e-05
-0.00416031 6.78578e-05 -6.59867e-05
-0.00335221 1.84548e-05 -0.000140933
-0.00269055 9.55107e-05 -6.67072e-05
-0.00170763 1.75586e-06 -0.000182964
-0.00109128 0.000136124 -2.77759e-05
-0.000196919 -1.62929e-05 -0.000202304
0 0 0
0 0 0
-0.000181948 -1.24326e-05 0.000183149
-0.00141792 -0.000106105 2.45588e-05
-0.00229967 -2.02438e-05 0.000170739
-0.00361642 -4.68669e-05 7.15094e-05
-0.0045749 -4.35713e-06 0.000136237
-0.00567559 -2.06787e-05 7.42097e-05
-0.00648401 7.7374e-08 0.000100743
-0.0072754 -1.11383e-05 5.59219e-05
-0.00781992 -3.6155e-07 6.24139e-05
-0.008248 -9.22149e-06 2.45821e-05
-0.00846135 -2.65067e-06 2.22405e-05
-0.00849261 -1.12969e-05 -1.45003e-05
-0.00834524 -5.02992e-06 -1.69626e-05
-0.00796784 -1.53192e-05 -5.74588e-05
-0.00746875 -5.16825e-06 -5.08878e-05
-0.00669605 -1.89273e-05 -0.000101029
-0.00589908 1.80613e-06 -7.27782e-05
-0.00477506 -1.75843e-05 -0.000142898
-0.00379403 2.70618e-05 -7.24443e-05
-0.00241782 -2.43363e-06 -0.00018305
-0.00149822 9.00338e-05 -2.32897e-05
-0.000193039 -5.42872e-06 -0.000197313
0 0 0
0 0 0
-0.000193059 -9.63585e-06 0.000205098
-0.00156889 -0.000101924 2.60348e-05
-0.00256181 -2.5106e-05 0.000189695
-0.00403005 -6.47721e-05 7.43801e-05
-0.0050921 -1.62013e-05 0.000148447
-0.00631317 -3.96905e-05 7.65504e-05
-0.00720386 -1.13431e-05 0.00010843
-0.00807883 -2.53107e-05 5.74776e-05
-0.00867695 -7.51026e-06 6.71766e-05
-0.00914841 -1.66926e-05 2.5135e-05
-0.00938129 -3.43977e-06 2.51564e-05
-0.00941353 -1.16225e-05 -1.52211e-05
-0.00924946 1.55788e-06 -1.5143e-05
-0.00883018 -9.01146e-06 -5.99696e-05
-0.00827974 8.83192e-06 -4.9668e-05
-0.00742368 -7.77926e-06 -0.000106329
-0.00654569 2.15166e-05 -7.18653e-05
-0.00529982 -5.63917e-06 -0.000152765
-0.00421522 4.59627e-05 -7.17818e-05
-0.00268483 1.97633e-06 -0.000200091
-0.00165287 8.52899e-05 -2.13915e-05
-0.00020729 -9.13114e-06 -0.000217732
0 0 0
0 0 0
-0.000196884 -2.09997e-05 0.000201487
-0.00160981 -8.04344e-05 1.83109e-05
-0.0026319 -3.28303e-05 0.000186257
-0.0041523 -5.32535e-05 6.97955e-05
-0.00524963 -1.95577e-05 0.000145713
-0.00651275 -3.10121e-05 7.39523e-05
-0.0074328 -1.14218e-05 0.000106617
-0.00833657 -1.91247e-05 5.59287e-05
-0.00895386 -7.74346e-06 6.59184e-05
-0.00944018 -1.39491e-05 2.40179e-05
-0.00968002 -6.39244e-06 2.41113e-05
-0.00971268 -1.2637e-05 -1.62139e-05
-0.00954265 -5.37571e-06 -1.61067e-05
-0.00910911 -1.28951e-05 -6.08768e-05
-0.00854012 -2.12495e-06 -5.03871e-05
-0.00765521 -1.21338e-05 -0.000106904
-0.00674781 7.31957e-06 -7.17283e-05
-0.00545894 -6.88799e-06 -0.000152577
-0.00433852 2.82238e-05 -6.96345e-05
-0.00275434 5.21698e-06 -0.000199132
-0.00169321 5.71421e-05 -1.56395e-05
-0.000209522 -1.10206e-06 -0.000216295
0 0 0
0 0 0
-0.000200748 -1.75376e-05 0.000210956
-0.0016227 -6.58076e-05 1.87525e-05
-0.00264848 -3.07879e-05 0.000194481
-0.00418786 -5.18854e-05 7.10936e-05
-0.00529007 -2.32146e-05 0.000151664
-0.00656889 -3.51048e-05 7.52806e-05
-0.00749319 -1.62067e-05 0.000110646
-0.00840731 -2.32906e-05 5.69107e-05
-0.00902759 -1.07908e-05 6.85189e-05
-0.00951901 -1.5648e-05 2.44347e-05
-0.00976008 -6.24574e-06 2.57038e-05
-0.00979275 -1.08104e-05 -1.6554e-05
-0.00962199 -1.56183e-06 -1.52015e-05
-0.00918328 -7.48902e-06 -6.22473e-05
-0.00861178 4.75456e-06 -4.99282e-05
-0.00771624 -4.2846e-06 -0.000109731
-0.00680505 1.48169e-05 -7.14942e-05
-0.00549997 3.89394e-07 -0.000157432
-0.00437499 3.04146e-05 -6.93319e-05
-0.00277147 6.62578e-06 -0.000206474
-0.00170674 4.5099e-05 -1.46226e-05
-0.000215011 -2.07272e-06 -0.000225056
0 0 0
0 0 0
-0.000203792 -2.1688e-05 0.000209785
-0.0016233 -5.42709e-05 1.49382e-05
-0.00264638 -3.23882e-05 0.000193382
-0.00419098 -4.5232e-05 6.83159e-05
-0.00529309 -2.48987e-05 0.000150779
-0.00657785 -3.15344e-05 7.34952e-05
-0.0075032 -1.7316e-05 0.000110045
-0.00842166 -2.12045e-05 5.57814e-05
-0.00904305 -1.16165e-05 6.81154e-05
-0.00953676 -1.44743e-05 2.36349e-05
-0.00977845 -7.31759e-06 2.54079e-05
-0.00981126 -1.02238e-05 -1.72385e-05
-0.00964039 -3.25921e-06 -1.53855e-05
-0.00919955 -7.0254e-06 -6.28988e-05
-0.00862728 2.17011e-06 -4.9846e-05
-0.00772725 -3.32185e-06 -0.000110304
-0.00681508 1.07915e-05 -7.0814e-05
-0.00550354 2.19552e-06 -0.000157819
-0.00437858 2.32943e-05 -6.76211e-05
-0.00276913 8.55541e-06 -0.000206656
-0.00170722 3.30336e-05 -1.16772e-05
-0.000217437 2.36491e-06 -0.000225094
0 0 0
0 0 0
-0.000205019 -1.71537e-05 0.000213949
-0.00162354 -4.20345e-05 1.53264e-05
-0.00264375 -2.66431e-05 0.000197177
-0.0041909 -3.75192e-05 6.90685e-05
-0.00529078 -2.20276e-05 0.000153748
-0.00657863 -2.78385e-05 7.42558e-05
-0.00750261 -1.61665e-05 0.000112156
-0.00842332 -1.93397e-05 5.6337e-05
-0.00904407 -1.08649e-05 6.95025e-05
-0.00953894 -1.28899e-05 2.38516e-05
-0.00978056 -6.16258e-06 2.62338e-05
-0.00981341 -8.1056e-06 -1.74714e-05
-0.00964297 -1.50072e-06 -1.49763e-05
-0.00920102 -4.2317e-06 -6.3714e-05
-0.0086297 4.00476e-06 -4.97291e-05
-0.00772731 -4.46214e-07 -0.000111873
-0.00681674 1.12059e-05 -7.08589e-05
-0.00550184 3.76003e-06 -0.000160308
-0.00437925 1.98294e-05 -6.76508e-05
-0.00276705 7.29412e-06 -0.000210068
-0.00170795 2.46107e-05 -1.14106e-05
-0.00021946 1.40156e-06 -0.000228955
0 0 0
0 0 0
-0.000206746 -1.67142e-05 0.000213471
-0.00162265 -3.35448e-05 1.34837e-05
-0.00264071 -2.39876e-05 0.000196757
-0.0041881 -3.06804e-05 6.7571e-05
-0.00528639 -1.99776e-05 0.000153407
-0.00657566 -2.32512e-05 7.31935e-05
-0.00749892 -1.47285e-05 0.000111918
-0.00842099 -1.63356e-05 5.56225e-05
-0.00904155 -9.94353e-06 6.93573e-05
-0.00953722 -1.09127e-05 2.33493e-05
-0.00977893 -5.77455e-06 2.61697e-05
-0.00981186 -6.77181e-06 -1.78718e-05
-0.00964166 -1.74896e-06 -1.4933e-05
-0.00919899 -3.26837e-06 -6.40724e-05
-0.00862809 2.88172e-06 -4.94924e-05
-0.00772426 2.96697e-07 -0.000112199
-0.00681451 8.71695e-06 -7.02893e-05
-0.00549792 4.22982e-06 -0.000160584
-0.00437692 1.52766e-05 -6.66209e-05
-0.0027641 7.41232e-06 -0.000210285
-0.00170718 1.84345e-05 -9.94702e-06
-0.000220949 3.22541e-06 -0.000229101
0 0 0
0 0 0
-0.000207114 -1.11247e-05 0.00021523
-0.00162233 -2.26962e-05 1.36858e-05
-0.00263901 -1.64341e-05 0.000198407
-0.00418683 -2.1279e-05 6.79237e-05
-0.00528384 -1.40614e-05 0.00015476
-0.00657406 -1.65487e-05 7.3547e-05
-0.0074965 -1.05951e-05 0.000112915
-0.00841942 -1.18098e-05 5.58772e-05
-0.0090396 -7.17526e-06 7.00243e-05
-0.00953576 -7.84189e-06 2.34356e-05
-0.00977743 -4.0043e-06 2.65648e-05
-0.00981039 -4.64969e-06 -1.80113e-05
-0.00964045 -8.84263e-07 -1.47485e-05
-0.00919734 -1.93145e-06 -6.44974e-05
-0.00862701 2.55186e-06 -4.94582e-05
-0.00772228 6.49156e-07 -0.000112973
-0.00681347 6.53853e-06 -7.03384e-05
-0.00549581 3.17359e-06 -0.000161747
-0.00437613 1.06012e-05 -6.66681e-05
-0.00276277 4.88944e-06 -0.000211791
-0.00170718 1.21044e-05 -9.87097e-06
-0.000221683 1.723e-06 -0.000230752
0 0 0
0 0 0
-0.000207857 -8.12383e-06 0.000215035
-0.00162194 -1.4549e-05 1.29215e-05
-0.0026378 -1.13287e-05 0.000198238
-0.00418544 -1.37618e-05 6.72659e-05
-0.00528169 -9.68925e-06 0.000154621
-0.0065723 -1.08037e-05 7.30532e-05
-0.00749431 -7.30427e-06 0.000112817
-0.00841772 -7.7411e-06 5.55336e-05
-0.00903775 -4.95041e-06 6.99716e-05
-0.00953422 -5.12388e-06 2.3197e-05
-0.00977591 -2.78965e-06 2.65611e-05
-0.00980891 -2.97656e-06 -1.81889e-05
-0.00963911 -6.92216e-07 -1.46871e-05
-0.00919572 -1.09688e-06 -6.46433e-05
-0.00862566 1.58617e-06 -4.92968e-05
-0.00772042 7.37825e-07 -0.000113099
-0.00681208 4.17839e-06 -7.00306e-05
-0.00549392 2.55221e-06 -0.000161856
-0.00437501 6.73889e-06 -6.61856e-05
-0.00276166 3.81789e-06 -0.000211883
-0.00170689 7.64082e-06 -9.24811e-06
-0.000222348 2.00635e-06 -0.000230819
0 0 0
0 0 0
-0.000207935 -1.9115e-06 0.000215521
-0.00162182 -4.1112e-06 1.29802e-05
-0.0026373 -2.9553e-06 0.0001987
-0.00418498 -3.90674e-06 6.73659e-05
-0.00528086 -2.56919e-06 0.000155008
-0.00657169 -3.08708e-06 7.31532e-05
-0.00749346 -1.96276e-06 0.000113108
-0.00841709 -2.23163e-06 5.56049e-05
-0.00903701 -1.33756e-06 7.01688e-05
-0.00953363 -1.49098e-06 2.32183e-05
-0.00977531 -7.38513e-07 2.66783e-05
-0.00980832 -8.83343e-07 -1.82352e-05
-0.0096386 -1.44081e-07 -1.46331e-05
-0.00919509 -3.7129e-07 -6.47743e-05
-0.0086252 4.94374e-07 -4.92881e-05
-0.00771972 9.01301e-08 -0.000113331
-0.00681167 1.19913e-06 -7.00468e-05
-0.00549324 5.04979e-07 -0.000162195
-0.00437471 1.87153e-06 -6.62017e-05
-0.00276128 7.4444e-07 -0.00021231
-0.00170687 2.06382e-06 -9.22988e-06
-0.000222533 1.12698e-07 -0.00023128
0 0 0
0 0 0
-0.000207935 1.9115e-06 0.000215521
-0.00162182 4.1112e-06 1.29802e-05
-0.0026373 2.9553e-06 0.0001987
-0.00418498 3.90674e-06 6.73659e-05
-0.00528086 2.56919e-06 0.000155008
-0.00657169 3.08708e-06 7.31532e-05
-0.00749346 1.96276e-06 0.000113108
-0.00841709 2.23163e-06 5.56049e-05
-0.00903701 1.33756e-06 7.01688e-05
-0.00953363 1.49098e-06 2.32183e-05
-0.00977531 7.38513e-07 2.66783e-05
-0.00980832 8.83343e-07 -1.82352e-05
-0.0096386 1.44081e-07 -1.46331e-05
-0.00919509 3.7129e-07 -6.47743e-05
-0.0086252 -4.94374e-07 -4.92881e-05
-0.00771972 -9.01301e-08 -0.000113331
-0.00681167 -1.19913e-06 -7.00468e-05
-0.00549324 -5.04979e-07 -0.000162195
-0.00437471 -1.87153e-06 -6.62017e-05
-0.00276128 -7.4444e-07 -0.00021231
-0.00170687 -2.06382e-06 -9.22988e-06
-0.000222533 -1.12698e-07 -0.00023128
0 0 0
0 0 0
-0.000207857 8.12383e-06 0.000215035
-0.00162194 1.4549e-05 1.29215e-05
-0.0026378 1.13287e-05 0.000198238
-0.00418544 1.37618e-05 6.72659e-05
-0.00528169 9.68925e-06 0.000154621
-0.0065723 1.08037e-05 7.30532e-05
-0.00749431 7.30427e-06 0.000112817
-0.00841772 7.7411e-06 5.55336e-05
-0.00903775 4.95041e-06 6.99716e-05
-0.00953422 5.12388e-06 2.3197e-05
-0.00977591 2.78965e-06 2.65611e-05
-0.00980891 2.97656e-06 -1.81889e-05
-0.00963911 6.92216e-07 -1.46871e-05
-0.00919572 1.09688e-06 -6.46433e-05
-0.00862566 -1.58617e-06 -4.92968e-05
-0.00772042 -7.37825e-07 -0.000113099
-0.00681208 -4.17839e-06 -7.00306e-05
-0.00549392 -2.55221e-06 -0.000161856
-0.00437501 -6.73889e-06 -6.61856e-05
-0.00276166 -3.81789e-06 -0.000211883
-0.00170689 -7.64082e-06 -9.24811e-06
-0.000222348 -2.00635e-06 -0.000230819
0 0 0
0 0 0
-0.000207114 1.11247e-05 0.00021523
-0.00162233 2.26962e-05 1.36858e-05
-0.00263901 1.64341e-05 0.000198407
-0.00418683 2.1279e-05 6.79237e-05
-0.00528384 1.40614e-05 0.00015476
-0.00657406 1.65487e-05 7.3547e-05
-0.0074965 1.05951e-05 0.000112915
-0.00841942 1.18098e-05 5.58772e-05
-0.0090396 7.17526e-06 7.00243e-05
-0.00953576 7.84189e-06 2.34356e-05
-0.00977743 4.0043e-06 2.65648e-05
-0.00981039 4.64969e-06 -1.80113e-05
-0.00964045 8.84263e-07 -1.47485e-05
-0.00919734 1.93145e-06 -6.44974e-05
-0.00862701 -2.55186e-06 -4.94582e-05
-0.00772228 -6.49156e-07 -0.000112973
-0.00681347 -6.53853e-06 -7.03384e-05
-0.00549581 -3.17359e-06 -0.000161747
-0.00437613 -1.06012e-05 -6.66681e-05
-0.00276277 -4.88944e-06 -0.000211791
-0.00170718 -1.21044e-05 -9.87097e-06
-0.000221683 -1.723e-06 -0.000230752
0 0 0
0 0 0
-0.000206746 1.67142e-05 0.000213471
-0.00162265 3.35448e-05 1.34837e-05
-0.00264071 2.39876e-05 0.000196757
-0.0041881 3.06804e-05 6.7571e-05
-0.00528639 1.99776e-05 0.000153407
-0.00657566 2.32512e-05 7.31935e-05
-0.00749892 1.47285e-05 0.000111918
-0.00842099 1.63356e-05 5.56225e-05
-0.00904155 9.94353e-06 6.93573e-05
-0.00953722 1.09127e-05 2.33493e-05
-0.00977893 5.77455e-06 2.61697e-05
-0.00981186 6.77181e-06 -1.78718e-05
-0.00964166 1.74896e-06 -1.4933e-05
-0.00919899 3.26837e-06 -6.40724e-05
-0.00862809 -2.88172e-06 -4.94924e-05
-0.00772426 -2.96697e-07 -0.000112199
-0.00681451 -8.71695e-06 -7.02893e-05
-0.00549792 -4.22982e-06 -0.000160584
-0.00437692 -1.52766e-05 -6.66209e-05
-0.0027641 -7.41232e-06 -0.000210285
-0.00170718 -1.84345e-05 -9.94702e-06
-0.000220949 -3.22541e-06 -0.000229101
0 0 0
0 0 0
-0.000205019 1.71537e-05 0.000213949
-0.00162354 4.20345e-05 1.53264e-05
-0.00264375 2.66431e-05 0.000197177
-0.0041909 3.75192e-05 6.90685e-05
-0.00529078 2.20276e-05 0.000153748
-0.00657863 2.78385e-05 7.42558e-05
-0.00750261 1.61665e-05 0.000112156
-0.00842332 1.93397e-05 5.6337e-05
-0.00904407 1.08649e-05 6.95025e-05
-0.00953894 1.28899e-05 2.38516e-05
-0.00978056 6.16258e-06 2.62338e-05
-0.00981341 8.1056e-06 -1.74714e-05
-0.00964297 1.50072e-06 -1.49763e-05
-0.00920102 4.2317e-06 -6.3714e-05
-0.0086297 -4.00476e-06 -4.97291e-05
-0.00772731 4.46214e-07 -0.000111873
-0.00681674 -1.12059e-05 -7.08589e-05
-0.00550184 -3.76003e-06 -0.000160308
-0.00437925 -1.98294e-05 -6.76508e-05
-0.00276705 -7.29412e-06 -0.000210068
-0.00170795 -2.46107e-05 -1.14106e-05
-0.00021946 -1.40156e-06 -0.000228955
0 0 0
0 0 0
-0.000203792 2.1688e-05 0.000209785
-0.0016233 5.42709e-05 1.49382e-05
-0.00264638 3.23882e-05 0.000193382
-0.00419098 4.5232e-05 6.83159e-05
-0.00529309 2.48987e-05 0.000150779
-0.00657785 3.15344e-05 7.34952e-05
-0.0075032 1.7316e-05 0.000110045
-0.00842166 2.12045e-05 5.57814e-05
-0.00904305 1.16165e-05 6.81154e-05
-0.00953676 1.44743e-05 2.36349e-05
-0.00977845 7.31759e-06 2.54079e-05
-0.00981126 1.02238e-05 -1.72385e-05
-0.00964039 3.25921e-06 -1.53855e-05
-0.00919955 7.0254e-06 -6.28988e-05
-0.00862728 -2.17011e-06 -4.9846e-05
-0.00772725 3.32185e-06 -0.000110304
-0.00681508 -1.07915e-05 -7.0814e-05
-0.00550354 -2.19552e-06 -0.000157819
-0.00437858 -2.32943e-05 -6.76211e-05
-0.00276913 -8.55541e-06 -0.000206656
-0.00170722 -3.30336e-05 -1.16772e-05
-0.000217437 -2.36491e-06 -0.000225094
0 0 0
0 0 0
-0.000200748 1.75376e-05 0.000210956
-0.0016227 6.58076e-05 1.87525e-05
-0.00264848 3.07879e-05 0.000194481
-0.00418786 5.18854e-05 7.10936e-05
-0.00529007 2.32146e-05 0.000151664
-0.00656889 3.51048e-05 7.52806e-05
-0.00749319 1.62067e-05 0.000110646
-0.00840731 2.32906e-05 5.69107e-05
-0.00902759 1.07908e-05 6.85189e-05
-0.00951901 1.5648e-05 2.44347e-05
-0.00976008 6.24574e-06 2.57038e-05
-0.00979275 1.08104e-05 -1.6554e-05
-0.00962199 1.56183e-06 -1.52015e-05
-0.00918328 7.48902e-06 -6.22473e-05
-0.00861178 -4.75456e-06 -4.99282e-05
-0.00771624 4.2846e-06 -0.000109731
-0.00680505 -1.48169e-05 -7.14942e-05
-0.00549997 -3.89394e-07 -0.000157432
-0.00437499 -3.04146e-05 -6.93319e-05
-0.00277147 -6.62578e-06 -0.000206474
-0.00170674 -4.5099e-05 -1.46226e-05
-0.000215011 2.07272e-06 -0.000225056
0 0 0
0 0 0
-0.000196884 2.09997e-05 0.000201487
-0.00160981 8.04344e-05 1.83109e-05
-0.0026319 3.28303e-05 0.000186257
-0.0041523 5.32535e-05 6.97955e-05
-0.00524963 1.95577e-05 0.000145713
-0.00651275 3.10121e-05 7.39523e-05
-0.0074328 1.14218e-05 0.000106617
-0.00833657 1.91247e-05 5.59287e-05
-0.00895386 7.74346e-06 6.59184e-05
-0.00944018 1.39491e-05 2.40179e-05
-0.00968002 6.39244e-06 2.41113e-05
-0.00971268 1.2637e-05 -1.62139e-05
-0.00954265 5.37571e-06 -1.61067e-05
-0.00910911 1.28951e-05 -6.08768e-05
-0.00854012 2.12495e-06 -5.03871e-05
-0.00765521 1.21338e-05 -0.000106904
-0.00674781 -7.31957e-06 -7.17283e-05
-0.00545894 6.88799e-06 -0.000152577
-0.00433852 -2.82238e-05 -6.96345e-05
-0.00275434 -5.21698e-06 -0.000199132
-0.00169321 -5.71421e-05 -1.56395e-05
-0.000209522 1.10206e-06 -0.000216295
0 0 0
0 0 0
-0.000193059 9.63585e-06 0.000205098
-0.00156889 0.000101924 2.60348e-05
-0.00256181 2.5106e-05 0.000189695
-0.00403005 6.47721e-05 7.43801e-05
-0.0050921 1.62013e-05 0.000148447
-0.00631317 3.96905e-05 7.65504e-05
-0.00720386 1.13431e-05 0.00010843
-0.00807883 2.53107e-05 5.74776e-05
-0.00867695 7.51026e-06 6.71766e-05
-0.00914841 1.66926e-05 2.5135e-05
-0.00938129 3.43977e-06 2.51564e-05
-0.00941353 1.16225e-05 -1.52211e-05
-0.00924946 -1.55788e-06 -1.5143e-05
-0.00883018 9.01146e-06 -5.99696e-05
-0.00827974 -8.83192e-06 -4.9668e-05
-0.00742368 7.77926e-06 -0.000106329
-0.00654569 -2.15166e-05 -7.18653e-05
-0.00529982 5.63917e-06 -0.000152765
-0.00421522 -4.59627e-05 -7.17818e-05
-0.00268483 -1.97633e-06 -0.000200091
-0.00165287 -8.52899e-05 -2.13915e-05
-0.00020729 9.13114e-06 -0.000217732
0 0 0
0 0 0
-0.000181948 1.24326e-05 0.000183149
-0.00141792 0.000106105 2.45588e-05
-0.00229967 2.02438e-05 0.000170739
-0.00361642 4.68669e-05 7.15094e-05
-0.0045749 4.35713e-06 0.000136237
-0.00567559 2.06787e-05 7.42097e-05
-0.00648401 -7.7374e-08 0.000100743
-0.0072754 1.11383e-05 5.59219e-05
-0.00781992 3.6155e-07 6.24139e-05
-0.008248 9.22149e-06 2.45821e-05
-0.00846135 2.65067e-06 2.22405e-05
-0.00849261 1.12969e-05 -1.45003e-05
-0.00834524 5.02992e-06 -1.69626e-05
-0.00796784 1.53192e-05 -5.74588e-05
-0.00746875 5.16825e-06 -5.08878e-05
-0.00669605 1.89273e-05 -0.000101029
-0.00589908 -1.80613e-06 -7.27782e-05
-0.00477506 1.75843e-05 -0.000142898
-0.00379403 -2.70618e-05 -7.24443e-05
-0.00241782 2.43363e-06 -0.00018305
-0.00149822 -9.00338e-05 -2.32897e-05
-0.000193039 5.42872e-06 -0.000197313
0 0 0
0 0 0
-0.000181399 -8.56628e-06 0.000191762
-0.00102378 0.000131642 3.33924e-05
-0.0016116 8.87579e-06 0.000175282
-0.00254766 9.48271e-05 7.13023e-05
-0.00319359 2.47643e-05 0.000139267
-0.0039827 6.98145e-05 7.28868e-05
-0.00453675 2.5151e-05 0.00010272
-0.00510566 4.71387e-05 5.51942e-05
-0.00548386 1.53683e-05 6.44064e-05
-0.00579274 2.59456e-05 2.50009e-05
-0.00594392 -7.16236e-07 2.5088e-05
-0.00596832 6.64746e-06 -1.28632e-05
-0.00586978 -2.06917e-05 -1.27553e-05
-0.0056003 -9.25076e-06 -5.484e-05
-0.00525878 -4.31981e-05 -4.51386e-05
-0.00470394 -1.90453e-05 -9.81304e-05
-0.00416031 -6.78578e-05 -6.59867e-05
-0.00335221 -1.84548e-05 -0.000140933
-0.00269055 -9.55107e-05 -6.67072e-05
-0.00170763 -1.75586e-06 -0.000182964
-0.00109128 -0.000136124 -2.77759e-05
-0.000196919 1.62929e-05 -0.000202304
0 0 0
0 0 0
0 0 0
0 0 0
0 0 0
0 0 0
0 0 0
0 0 0
0 0 0
0 0 0
0 0 0
0 0 0
0 0 0
0 0 0
0 0 0
0 0 0
0 0 0
0 0 0
0 0 0
0 0 0
0 0 0
0 0 0
0 0 0
0 0 0
0 0 0
0 0 0
0 0 0
0 0 0
0 0 0
0 0 0
0 0 0
0 0 0
0 0 0
0 0 0
0 0 0
0 0 0
0 0 0
0 0 0
0 0 0
0 0 0
0 0 0
0 0 0
0 0 0
0 0 0
0 0 0
0 0 0
0 0 0
0 0 0
0 0 0
0 0 0
-7.37072e-05 0.000125114 0.00106881
-0.00140648 -2.54145e-05 0.00129256
-0.00232541 0.000118364 0.00151338
-0.00372252 2.76259e-05 0.00141128
-0.00472567 9.3636e-05 0.00137204
-0.00588115 3.84897e-05 0.00119324
-0.00672443 6.85372e-05 0.00105568
-0.00755141 3.0537e-05 0.000840333
-0.00811901 4.22226e-05 0.000646818
-0.00856652 1.16324e-05 0.00040557
-0.00879054 1.54936e-05 0.000181492
-0.00882559 -1.35575e-05 -7.44387e-05
-0.00867558 -9.52386e-06 -0.000305439
-0.00828498 -4.20119e-05 -0.000562608
-0.00776871 -2.95022e-05 -0.000774177
-0.00696294 -7.14312e-05 -0.00101742
-0.00613326 -3.88509e-05 -0.00117642
-0.00495186 -0.000100316 -0.00138789
-0.00392411 -2.82771e-05 -0.00143991
-0.00246016 -0.00012853 -0.00156995
-0.0014985 2.78644e-05 -0.00133776
-8.73067e-05 -0.000136723 -0.00112569
0 0 0
0 0 0
-7.39336e-05 5.26222e-05 0.00145318
-0.00201555 -5.4344e-05 0.0018427
-0.00341842 6.21208e-05 0.00215153
-0.00541864 3.35453e-05 0.00203663
-0.00692324 8.13734e-05 0.00196201
-0.00857043 5.61429e-05 0.00171793
-0.00981655 6.95725e-05 0.00150672
-0.0109931 4.43865e-05 0.00120346
-0.0118223 4.15946e-05 0.000916254
-0.0124564 1.57175e-05 0.000573228
-0.0127775 5.77732e-06 0.000244486
-0.0128226 -2.12155e-05 -0.000119661
-0.0125951 -3.19902e-05 -0.000457867
-0.0120346 -6.04302e-05 -0.00082172
-0.0112696 -6.52495e-05 -0.00113378
-0.0101211 -9.48696e-05 -0.00147318
-0.00889024 -8.30395e-05 -0.00171439
-0.00721078 -0.000113237 -0.00199968
-0.00567139 -6.3863e-05 -0.00209312
-0.00358577 -9.6274e-05 -0.00224008
-0.00212588 2.8806e-05 -0.00191658
-8.15466e-05 -7.92607e-05 -0.00153347
0 0 0
0 0 0
-7.03895e-05 5.1788e-05 0.00160994
-0.00225446 -5.33012e-05 0.00206148
-0.00384804 4.80338e-05 0.00241516
-0.00609754 5.53862e-06 0.00228921
-0.00778496 5.93097e-05 0.00220397
-0.00962864 2.79488e-05 0.00192841
-0.0110187 5.02529e-05 0.00168937
-0.0123315 2.38799e-05 0.0013475
-0.0132536 2.97279e-05 0.00102393
-0.0139584 5.26568e-06 0.000638093
-0.014313 3.74622e-06 0.000268643
-0.0143599 -2.09799e-05 -0.000140294
-0.0141032 -2.30088e-05 -0.000519846
-0.0134746 -4.98357e-05 -0.000928112
-0.0126202 -4.50823e-05 -0.00127818
-0.0113361 -7.57462e-05 -0.00165906
-0.00996276 -5.3734e-05 -0.00193
-0.0080847 -9.05003e-05 -0.00225014
-0.00636181 -3.41035e-05 -0.00235484
-0.00402258 -8.20579e-05 -0.0025151
-0.00236977 2.74647e-05 -0.00214368
-8.0827e-05 -7.89879e-05 -0.00169755
0 0 0
0 0 0
-7.11909e-05 9.15508e-06 0.00164212
-0.0023229 -6.07452e-05 0.0021112
-0.00397121 2.62439e-06 0.00248132
-0.00630736 -1.95371e-05 0.00235472
-0.00805749 1.9894e-05 0.00226743
-0.0099703 4.2167e-06 0.00198446
-0.0114112 2.19428e-05 0.00173761
-0.0127712 7.04048e-06 0.0013857
-0.0137259 1.22099e-05 0.00105164
-0.0144551 -3.18084e-06 0.000654155
-0.0148215 -3.96154e-06 0.00027283
-0.014869 -2.0297e-05 -0.000148507
-0.0146021 -2.16989e-05 -0.000540209
-0.01395 -3.91284e-05 -0.000960685
-0.0130638 -3.54024e-05 -0.00132196
-0.0117325 -5.38124e-05 -0.00171381
-0.0103082 -3.7102e-05 -0.00199335
-0.00835972 -5.6761e-05 -0.0023218
-0.00657321 -1.61509e-05 -0.00242873
-0.00414505 -4.16324e-05 -0.00258983
-0.0024373 2.7446e-05 -0.00220049
-7.95332e-05 -3.9873e-05 -0.00173559
0 0 0
0 0 0
-6.92647e-05 4.55932e-06 0.00165636
-0.00234208 -5.24373e-05 0.00212422
-0.00400009 -7.06341e-06 0.00250373
-0.00636836 -3.03837e-05 0.00237323
-0.00813185 2.91064e-06 0.00228833
-0.0100704 -1.21266e-05 0.00200068
-0.0115224 6.14447e-06 0.00175329
-0.0128995 -6.02656e-06 0.00139681
-0.0138616 2.54527e-06 0.00106075
-0.0145993 -8.84213e-06 0.000658732
-0.0149685 -5.04157e-06 0.000274729
-0.0150161 -1.68246e-05 -0.00015123
-0.0147471 -1.34113e-05 -0.000545651
-0.0140866 -2.64177e-05 -0.000970937
-0.0131937 -1.86894e-05 -0.00133429
-0.0118451 -3.37419e-05 -0.00173124
-0.0104102 -1.58744e-05 -0.0020113
-0.00843519 -3.44572e-05 -0.00234517
-0.00663556 3.97575e-08 -0.00244932
-0.00417455 -2.67107e-05 -0.00261508
-0.00245718 2.31911e-05 -0.00221528
-7.90544e-05 -3.15156e-05 -0.00175192
0 0 0
0 0 0
-7.05434e-05 -1.21493e-05 0.0016518
-0.00234328 -5.16142e-05 0.00211665
-0.00399891 -2.36858e-05 0.00249944
-0.00637631 -3.80631e-05 0.00236813
-0.00814181 -1.39838e-05 0.00228535
-0.0100897 -2.21476e-05 0.00199734
-0.0115449 -7.3016e-06 0.00175123
-0.0129287 -1.38219e-05 0.0013946
-0.0138933 -5.812e-06 0.00105935
-0.0146345 -1.22484e-05 0.000657211
-0.0150049 -7.851e-06 0.000273746
-0.0150527 -1.48203e-05 -0.000152397
-0.0147833 -1.07891e-05 -0.000546336
-0.0141196 -1.85424e-05 -0.000971922
-0.0132246 -1.13599e-05 -0.00133459
-0.0118691 -2.01705e-05 -0.00173202
-0.0104311 -5.8789e-06 -0.00201086
-0.00844609 -1.67526e-05 -0.00234547
-0.00664428 7.96871e-06 -0.00244733
-0.00417316 -8.85037e-06 -0.00261425
-0.00245822 2.25157e-05 -0.00221053
-7.95144e-05 -1.37959e-05 -0.00175017
0 0 0
0 0 0
-6.95912e-05 -1.11845e-05 0.00165201
-0.00234292 -4.15039e-05 0.00211311
-0.003995 -2.22168e-05 0.00249863
-0.00637689 -3.44733e-05 0.0023655
-0.00814067 -1.61848e-05 0.00228476
-0.0100934 -2.30678e-05 0.00199563
-0.011548 -1.05913e-05 0.00175085
-0.0129352 -1.54683e-05 0.00139352
-0.0138998 -7.72315e-06 0.00105914
-0.0146428 -1.20801e-05 0.000656526
-0.0150134 -6.93904e-06 0.000273718
-0.0150613 -1.15583e-05 -0.000152885
-0.0147922 -6.66604e-06 -0.000546177
-0.0141268 -1.20375e-05 -0.000972378
-0.0132323 -4.84603e-06 -0.00133418
-0.0118733 -1.15288e-05 -0.00173256
-0.0104362 5.9862e-07 -0.00201002
-0.00844594 -8.5217e-06 -0.00234613
-0.00664596 1.02409e-05 -0.00244574
-0.00416995 -4.15093e-06 -0.00261492
-0.00245849 1.77035e-05 -0.00220804
-7.92431e-05 -9.91862e-06 -0.00175166
0 0 0
0 0 0
-7.04742e-05 -1.50788e-05 0.00164807
-0.0023415 -3.59935e-05 0.00210686
-0.00399071 -2.4197e-05 0.00249347
-0.00637342 -3.17673e-05 0.00235979
-0.00813559 -1.9018e-05 0.00228043
-0.0100905 -2.27462e-05 0.00199126
-0.0115446 -1.32862e-05 0.00174769
-0.0129338 -1.56637e-05 0.0013906
-0.0138985 -9.29647e-06 0.00105724
-0.0146426 -1.14262e-05 0.000654965
-0.0150135 -6.8834e-06 0.000273064
-0.0150615 -9.2751e-06 -0.00015321
-0.0147926 -4.94135e-06 -0.000545621
-0.0141262 -7.84872e-06 -0.000971593
-0.013232 -1.95851e-06 -0.00133242
-0.0118709 -5.70365e-06 -0.00173077
-0.0104344 3.40397e-06 -0.00200704
-0.00844163 -1.98419e-06 -0.00234344
-0.00664322 1.10169e-05 -0.00244158
-0.00416586 1.92657e-06 -0.00261161
-0.00245726 1.56684e-05 -0.0022033
-7.97959e-05 -2.74116e-06 -0.00174931
0 0 0
0 0 0
-7.00134e-05 -1.02993e-05 0.00164739
-0.00234079 -2.47251e-05 0.00210437
-0.00398813 -1.70803e-05 0.002492
-0.0063717 -2.25672e-05 0.00235754
-0.00813254 -1.39804e-05 0.00227918
-0.0100889 -1.67683e-05 0.0019896
-0.0115423 -1.01081e-05 0.0017468
-0.0129328 -1.17846e-05 0.00138951
-0.0138972 -7.0523e-06 0.00105675
-0.0146421 -8.41726e-06 0.000654377
-0.015013 -4.85387e-06 0.000272972
-0.0150611 -6.3488e-06 -0.000153392
-0.0147925 -2.9209e-06 -0.000545315
-0.0141255 -4.82317e-06 -0.00097146
-0.0132317 -4.01361e-07 -0.00133171
-0.0118693 -3.03777e-06 -0.00173041
-0.0104336 3.38566e-06 -0.00200589
-0.00843924 -5.98465e-07 -0.00234291
-0.00664221 8.12721e-06 -0.00243996
-0.00416377 1.51754e-06 -0.00261101
-0.00245695 1.04448e-05 -0.00220147
-7.96362e-05 -2.15613e-06 -0.00174941
0 0 0
0 0 0
-7.04179e-05 -8.37705e-06 0.00164556
-0.00234018 -1.65007e-05 0.00210156
-0.00398638 -1.26053e-05 0.00248959
-0.00636988 -1.53584e-05 0.00235488
-0.00812987 -1.04861e-05 0.00227713
-0.0100868 -1.16822e-05 0.00198753
-0.0115399 -7.68868e-06 0.00174531
-0.012931 -8.2687e-06 0.00138813
-0.0138954 -5.29704e-06 0.00105587
-0.0146407 -5.73513e-06 0.000653657
-0.0150117 -3.42119e-06 0.00027271
-0.0150599 -3.95694e-06 -0.000153498
-0.0147914 -1.731e-06 -0.000544976
-0.014124 -2.49348e-06 -0.000971014
-0.0132304 2.74187e-07 -0.00133079
-0.0118673 -8.78816e-07 -0.00172948
-0.0104321 2.95014e-06 -0.0020044
-0.00843699 1.05367e-06 -0.00234157